# vtk DataFile Version 3.0
vtk output
ASCII
DATASET UNSTRUCTURED_GRID
POINTS 324 float
3.085804e-01	-3.230213e-03	0.0	3.089526e-01	-2.604522e-03	0.0	3.492715e-01	5.209667e-03	0.0	3.095147e-01	-1.961682e-03	0.0	3.476966e-01	4.400654e-03	0.0	3.101596e-01	-1.396191e-03	0.0	3.109480e-01	-1.059579e-03	0.0	3.117682e-01	-7.994838e-04	0.0	3.126276e-01	-7.984141e-04	0.0	3.134890e-01	-8.638602e-04	0.0	3.143517e-01	-9.256926e-04	0.0	3.152157e-01	-9.854075e-04	0.0	3.469004e-01	4.013196e-03	0.0	3.160808e-01	-1.043356e-03	0.0	3.461063e-01	3.621450e-03	0.0	3.453074e-01	3.239690e-03	0.0	3.444980e-01	2.880663e-03	0.0	3.169474e-01	-1.093644e-03	0.0	3.436813e-01	2.538755e-03	0.0	3.178151e-01	-1.141949e-03	0.0	3.428659e-01	2.193951e-03	0.0	3.420457e-01	1.861087e-03	0.0	3.186839e-01	-1.187218e-03	0.0	3.412151e-01	1.555801e-03	0.0	3.403773e-01	1.271143e-03	0.0	3.395409e-01	9.828459e-04	0.0	3.387002e-01	7.085158e-04	0.0	3.378498e-01	4.667364e-04	0.0	3.195542e-01	-1.220909e-03	0.0	3.369925e-01	2.518513e-04	0.0	3.361364e-01	3.350940e-05	0.0	3.352778e-01	-1.730286e-04	0.0	3.344121e-01	-3.452022e-04	0.0	3.335416e-01	-4.895788e-04	0.0	3.326712e-01	-6.311072e-04	0.0	3.318010e-01	-7.718520e-04	0.0	3.204255e-01	-1.250547e-03	0.0	3.309276e-01	-8.860647e-04	0.0	3.300515e-01	-9.725823e-04	0.0	3.291748e-01	-1.047109e-03	0.0	3.282993e-01	-1.128879e-03	0.0	3.274245e-01	-1.210247e-03	0.0	3.265490e-01	-1.276510e-03	0.0	3.212979e-01	-1.271940e-03	0.0	3.221712e-01	-1.293108e-03	0.0	3.230453e-01	-1.314082e-03	0.0	3.239203e-01	-1.328909e-03	0.0	3.247961e-01	-1.331615e-03	0.0	3.256726e-01	-1.316176e-03	0.0	3.083361e-01	-3.913094e-03	0.0	3.484891e-01	4.795396e-03	0.0	3.500443e-01	5.641354e-03	0.0	3.505637e-01	5.940783e-03	0.0	3.510818e-01	6.242514e-03	0.0	3.516005e-01	6.543308e-03	0.0	3.521204e-01	6.842176e-03	0.0	3.526394e-01	7.142492e-03	0.0	3.531554e-01	7.448047e-03	0.0	3.536673e-01	7.760462e-03	0.0	3.541757e-01	8.078652e-03	0.0	3.546812e-01	8.401356e-03	0.0	3.551850e-01	8.726799e-03	0.0	3.556884e-01	9.052778e-03	0.0	3.561926e-01	9.377406e-03	0.0	3.566970e-01	9.701935e-03	0.0	3.571994e-01	1.002937e-02	0.0	3.576988e-01	1.036143e-02	0.0	3.581956e-01	1.069725e-02	0.0	3.586906e-01	1.103562e-02	0.0	3.591848e-01	1.137519e-02	0.0	3.596791e-01	1.171455e-02	0.0	3.601738e-01	1.205311e-02	0.0	3.606683e-01	1.239196e-02	0.0	3.611617e-01	1.273236e-02	0.0	3.616532e-01	1.307533e-02	0.0	3.621427e-01	1.342115e-02	0.0	3.626299e-01	1.376992e-02	0.0	3.631150e-01	1.412154e-02	0.0	3.635988e-01	1.447491e-02	0.0	3.640822e-01	1.482856e-02	0.0	3.645663e-01	1.518121e-02	0.0	3.650508e-01	1.553303e-02	0.0	3.655351e-01	1.588498e-02	0.0	3.660186e-01	1.623800e-02	0.0	3.665004e-01	1.659304e-02	0.0	3.669800e-01	1.695083e-02	0.0	3.674573e-01	1.731157e-02	0.0	3.679320e-01	1.767539e-02	0.0	3.684042e-01	1.804240e-02	0.0	3.688736e-01	1.841269e-02	0.0	3.693407e-01	1.878566e-02	0.0	3.698063e-01	1.916020e-02	0.0	3.702714e-01	1.953521e-02	0.0	3.707369e-01	1.990957e-02	0.0	3.712032e-01	2.028254e-02	0.0	3.716699e-01	2.065485e-02	0.0	3.721360e-01	2.102757e-02	0.0	3.726007e-01	2.140178e-02	0.0	3.730631e-01	2.177851e-02	0.0	3.735228e-01	2.215833e-02	0.0	3.739796e-01	2.254132e-02	0.0	3.744334e-01	2.292759e-02	0.0	3.748840e-01	2.331720e-02	0.0	3.753316e-01	2.371001e-02	0.0	3.757771e-01	2.410498e-02	0.0	3.762213e-01	2.450094e-02	0.0	3.766655e-01	2.489671e-02	0.0	3.771105e-01	2.529122e-02	0.0	3.775554e-01	2.568542e-02	0.0	3.779981e-01	2.608187e-02	0.0	3.784375e-01	2.648149e-02	0.0	3.788740e-01	2.688399e-02	0.0	3.793093e-01	2.728748e-02	0.0	3.797452e-01	2.768994e-02	0.0	3.801809e-01	2.809223e-02	0.0	3.806148e-01	2.849608e-02	0.0	3.810456e-01	2.890280e-02	0.0	3.814733e-01	2.931248e-02	0.0	3.818978e-01	2.972501e-02	0.0	3.823199e-01	3.013972e-02	0.0	3.827409e-01	3.055504e-02	0.0	3.831625e-01	3.096943e-02	0.0	3.835847e-01	3.138273e-02	0.0	3.840066e-01	3.179598e-02	0.0	3.844271e-01	3.221022e-02	0.0	3.848451e-01	3.262651e-02	0.0	3.852599e-01	3.304552e-02	0.0	3.856716e-01	3.346721e-02	0.0	3.860802e-01	3.389150e-02	0.0	3.864856e-01	3.431827e-02	0.0	3.868883e-01	3.474732e-02	0.0	3.872888e-01	3.517786e-02	0.0	3.876882e-01	3.560898e-02	0.0	3.880875e-01	3.603977e-02	0.0	3.884875e-01	3.646937e-02	0.0	3.888881e-01	3.689801e-02	0.0	3.892881e-01	3.732663e-02	0.0	3.896867e-01	3.775620e-02	0.0	3.900826e-01	3.818768e-02	0.0	3.904754e-01	3.862152e-02	0.0	3.908652e-01	3.905758e-02	0.0	3.912521e-01	3.949567e-02	0.0	3.916363e-01	3.993562e-02	0.0	3.920181e-01	4.037717e-02	0.0	3.923980e-01	4.081987e-02	0.0	3.927765e-01	4.126324e-02	0.0	3.931543e-01	4.170701e-02	0.0	3.935849e-01	4.208953e-02	0.0	3.941278e-01	4.229537e-02	0.0	3.947040e-01	4.232142e-02	0.0	3.952414e-01	4.210361e-02	0.0	3.957366e-01	4.165683e-02	0.0	3.960041e-01	4.105694e-02	0.0	3.960432e-01	4.038936e-02	0.0	3.957582e-01	3.978330e-02	0.0	3.954517e-01	3.918439e-02	0.0	3.951172e-01	3.860033e-02	0.0	3.947718e-01	3.802233e-02	0.0	3.944288e-01	3.744266e-02	0.0	3.940753e-01	3.686905e-02	0.0	3.937058e-01	3.630534e-02	0.0	3.933294e-01	3.574593e-02	0.0	3.929527e-01	3.518647e-02	0.0	3.925764e-01	3.462648e-02	0.0	3.921933e-01	3.407094e-02	0.0	3.918060e-01	3.351797e-02	0.0	3.914216e-01	3.296284e-02	0.0	3.910376e-01	3.240710e-02	0.0	3.906531e-01	3.185160e-02	0.0	3.902689e-01	3.129564e-02	0.0	3.898861e-01	3.073847e-02	0.0	3.895048e-01	3.018008e-02	0.0	3.891242e-01	2.962103e-02	0.0	3.887436e-01	2.906182e-02	0.0	3.883628e-01	2.850254e-02	0.0	3.879818e-01	2.794325e-02	0.0	3.876008e-01	2.738379e-02	0.0	3.872202e-01	2.682392e-02	0.0	3.868400e-01	2.626362e-02	0.0	3.864595e-01	2.570334e-02	0.0	3.860783e-01	2.514349e-02	0.0	3.856963e-01	2.458394e-02	0.0	3.853143e-01	2.402435e-02	0.0	3.849324e-01	2.346457e-02	0.0	3.845505e-01	2.290465e-02	0.0	3.841687e-01	2.234461e-02	0.0	3.837868e-01	2.178450e-02	0.0	3.834044e-01	2.122460e-02	0.0	3.830209e-01	2.066543e-02	0.0	3.826354e-01	2.010755e-02	0.0	3.822472e-01	1.955150e-02	0.0	3.818563e-01	1.899729e-02	0.0	3.814637e-01	1.844420e-02	0.0	3.810706e-01	1.789143e-02	0.0	3.806781e-01	1.733822e-02	0.0	3.802864e-01	1.678436e-02	0.0	3.798946e-01	1.623061e-02	0.0	3.795014e-01	1.567777e-02	0.0	3.791060e-01	1.512656e-02	0.0	3.787075e-01	1.457756e-02	0.0	3.783051e-01	1.403133e-02	0.0	3.778993e-01	1.348775e-02	0.0	3.774917e-01	1.294545e-02	0.0	3.770845e-01	1.240292e-02	0.0	3.766786e-01	1.185945e-02	0.0	3.762731e-01	1.131572e-02	0.0	3.758669e-01	1.077254e-02	0.0	3.754589e-01	1.023076e-02	0.0	3.750481e-01	9.691202e-03	0.0	3.746336e-01	9.154567e-03	0.0	3.742145e-01	8.621531e-03	0.0	3.737901e-01	8.092786e-03	0.0	3.733598e-01	7.569026e-03	0.0	3.729239e-01	7.049953e-03	0.0	3.724845e-01	6.533896e-03	0.0	3.720439e-01	6.019046e-03	0.0	3.716041e-01	5.503582e-03	0.0	3.711665e-01	4.986414e-03	0.0	3.707284e-01	4.469844e-03	0.0	3.702861e-01	3.956989e-03	0.0	3.698379e-01	3.449392e-03	0.0	3.693834e-01	2.947656e-03	0.0	3.689248e-01	2.449865e-03	0.0	3.684664e-01	1.951943e-03	0.0	3.680095e-01	1.452949e-03	0.0	3.675499e-01	9.565835e-04	0.0	3.670845e-01	4.659658e-04	0.0	3.666122e-01	-1.784669e-05	0.0	3.661336e-01	-4.952477e-04	0.0	3.656532e-01	-9.705890e-04	0.0	3.651745e-01	-1.447378e-03	0.0	3.646928e-01	-1.920808e-03	0.0	3.642040e-01	-2.386786e-03	0.0	3.637098e-01	-2.846603e-03	0.0	3.632161e-01	-3.306775e-03	0.0	3.627206e-01	-3.764582e-03	0.0	3.622181e-01	-4.214493e-03	0.0	3.617094e-01	-4.657001e-03	0.0	3.612008e-01	-5.099338e-03	0.0	3.606927e-01	-5.541840e-03	0.0	3.601798e-01	-5.978494e-03	0.0	3.596596e-01	-6.406048e-03	0.0	3.591319e-01	-6.823864e-03	0.0	3.585997e-01	-7.235503e-03	0.0	3.580685e-01	-7.647979e-03	0.0	3.575381e-01	-8.061233e-03	0.0	3.570034e-01	-8.468280e-03	0.0	3.564613e-01	-8.865139e-03	0.0	3.558462e-01	-9.296533e-03	0.0	3.552260e-01	-9.720815e-03	0.0	3.546077e-01	-1.014782e-02	0.0	3.539899e-01	-1.057572e-02	0.0	3.533677e-01	-1.099729e-02	0.0	3.527373e-01	-1.140643e-02	0.0	3.520973e-01	-1.180049e-02	0.0	3.514471e-01	-1.217751e-02	0.0	3.507891e-01	-1.254059e-02	0.0	3.501287e-01	-1.289942e-02	0.0	3.494709e-01	-1.326294e-02	0.0	3.488141e-01	-1.362821e-02	0.0	3.481530e-01	-1.398570e-02	0.0	3.474837e-01	-1.432725e-02	0.0	3.468049e-01	-1.464935e-02	0.0	3.461162e-01	-1.494947e-02	0.0	3.454202e-01	-1.523238e-02	0.0	3.447227e-01	-1.551103e-02	0.0	3.440278e-01	-1.579619e-02	0.0	3.433332e-01	-1.608136e-02	0.0	3.426333e-01	-1.635326e-02	0.0	3.419253e-01	-1.660284e-02	0.0	3.412089e-01	-1.682658e-02	0.0	3.404850e-01	-1.702427e-02	0.0	3.397580e-01	-1.720959e-02	0.0	3.390323e-01	-1.739950e-02	0.0	3.383080e-01	-1.759389e-02	0.0	3.375808e-01	-1.777635e-02	0.0	3.368479e-01	-1.793316e-02	0.0	3.361094e-01	-1.805972e-02	0.0	3.353663e-01	-1.815450e-02	0.0	3.346213e-01	-1.823091e-02	0.0	3.338768e-01	-1.830991e-02	0.0	3.331331e-01	-1.839468e-02	0.0	3.323881e-01	-1.846271e-02	0.0	3.316411e-01	-1.849889e-02	0.0	3.308935e-01	-1.850123e-02	0.0	3.301464e-01	-1.848006e-02	0.0	3.293995e-01	-1.846009e-02	0.0	3.286529e-01	-1.844482e-02	0.0	3.279072e-01	-1.841066e-02	0.0	3.271642e-01	-1.834286e-02	0.0	3.264256e-01	-1.823925e-02	0.0	3.256910e-01	-1.811200e-02	0.0	3.249563e-01	-1.798743e-02	0.0	3.242212e-01	-1.786757e-02	0.0	3.234899e-01	-1.772845e-02	0.0	3.227665e-01	-1.755449e-02	0.0	3.220536e-01	-1.734303e-02	0.0	3.213504e-01	-1.710210e-02	0.0	3.206490e-01	-1.685733e-02	0.0	3.199448e-01	-1.662183e-02	0.0	3.192454e-01	-1.637375e-02	0.0	3.185593e-01	-1.609226e-02	0.0	3.178902e-01	-1.577352e-02	0.0	3.172381e-01	-1.542217e-02	0.0	3.165914e-01	-1.506178e-02	0.0	3.159437e-01	-1.470419e-02	0.0	3.153142e-01	-1.431650e-02	0.0	3.146902e-01	-1.392078e-02	0.0	3.140682e-01	-1.352281e-02	0.0	3.134652e-01	-1.309771e-02	0.0	3.128945e-01	-1.263095e-02	0.0	3.123623e-01	-1.212149e-02	0.0	3.118408e-01	-1.160155e-02	0.0	3.113118e-01	-1.109011e-02	0.0	3.108081e-01	-1.055470e-02	0.0	3.103577e-01	-9.974589e-03	0.0	3.099574e-01	-9.359202e-03	0.0	3.095563e-01	-8.745006e-03	0.0	3.091991e-01	-8.105295e-03	0.0	3.088775e-01	-7.447271e-03	0.0	3.085931e-01	-6.773398e-03	0.0	3.083583e-01	-6.080923e-03	0.0	3.082394e-01	-5.362770e-03	0.0	3.082284e-01	-4.634417e-03	0.0	
CELLS 324	972
2	51	52	2	52	53	2	53	54	2	54	55	2	55	56	2	56	57	2	57	58	2	58	59	2	59	60	2	60	61	2	61	62	2	62	63	2	63	64	2	64	65	2	65	66	2	66	67	2	67	68	2	68	69	2	69	70	2	70	71	2	71	72	2	72	73	2	73	74	2	74	75	2	75	76	2	76	77	2	77	78	2	78	79	2	79	80	2	80	81	2	81	82	2	82	83	2	83	84	2	84	85	2	85	86	2	86	87	2	87	88	2	88	89	2	89	90	2	90	91	2	91	92	2	92	93	2	93	94	2	94	95	2	95	96	2	96	97	2	97	98	2	98	99	2	99	100	2	100	101	2	101	102	2	102	103	2	103	104	2	104	105	2	105	106	2	106	107	2	107	108	2	108	109	2	109	110	2	110	111	2	111	112	2	112	113	2	113	114	2	114	115	2	115	116	2	116	117	2	117	118	2	118	119	2	119	120	2	120	121	2	121	122	2	122	123	2	123	124	2	124	125	2	125	126	2	126	127	2	127	128	2	128	129	2	129	130	2	130	131	2	131	132	2	132	133	2	133	134	2	134	135	2	135	136	2	136	137	2	137	138	2	138	139	2	139	140	2	140	141	2	141	142	2	142	143	2	143	144	2	144	145	2	145	146	2	146	147	2	147	148	2	148	149	2	149	150	2	150	151	2	151	152	2	152	153	2	153	154	2	154	155	2	155	156	2	156	157	2	157	158	2	158	159	2	159	160	2	160	161	2	161	162	2	162	163	2	163	164	2	164	165	2	165	166	2	166	167	2	167	168	2	168	169	2	169	170	2	170	171	2	171	172	2	172	173	2	173	174	2	174	175	2	175	176	2	176	177	2	177	178	2	178	179	2	179	180	2	180	181	2	181	182	2	182	183	2	183	184	2	184	185	2	185	186	2	186	187	2	187	188	2	188	189	2	189	190	2	190	191	2	191	192	2	192	193	2	193	194	2	194	195	2	195	196	2	196	197	2	197	198	2	198	199	2	199	200	2	200	201	2	201	202	2	202	203	2	203	204	2	204	205	2	205	206	2	206	207	2	207	208	2	208	209	2	209	210	2	210	211	2	211	212	2	212	213	2	213	214	2	214	215	2	215	216	2	216	217	2	217	218	2	218	219	2	219	220	2	220	221	2	221	222	2	222	223	2	223	224	2	224	225	2	225	226	2	226	227	2	227	228	2	228	229	2	229	230	2	230	231	2	231	232	2	232	233	2	233	234	2	234	235	2	235	236	2	236	237	2	237	238	2	238	239	2	239	240	2	240	241	2	241	242	2	242	243	2	243	244	2	244	245	2	245	246	2	246	247	2	247	248	2	248	249	2	249	250	2	250	251	2	251	252	2	252	253	2	253	254	2	254	255	2	255	256	2	256	257	2	257	258	2	258	259	2	259	260	2	260	261	2	261	262	2	262	263	2	263	264	2	264	265	2	265	266	2	266	267	2	267	268	2	268	269	2	269	270	2	270	271	2	271	272	2	272	273	2	273	274	2	274	275	2	275	276	2	276	277	2	277	278	2	278	279	2	279	280	2	280	281	2	281	282	2	282	283	2	283	284	2	284	285	2	285	286	2	286	287	2	287	288	2	288	289	2	289	290	2	290	291	2	291	292	2	292	293	2	293	294	2	294	295	2	295	296	2	296	297	2	297	298	2	298	299	2	299	300	2	300	301	2	301	302	2	302	303	2	303	304	2	304	305	2	305	306	2	306	307	2	307	308	2	308	309	2	309	310	2	310	311	2	311	312	2	312	313	2	313	314	2	314	315	2	315	316	2	316	317	2	317	318	2	318	319	2	319	320	2	320	321	2	321	322	2	322	323	2	323	49	2	49	0	2	0	1	2	1	3	2	3	5	2	5	6	2	6	7	2	7	8	2	8	9	2	9	10	2	10	11	2	11	13	2	13	17	2	17	19	2	19	22	2	22	28	2	28	36	2	36	43	2	43	44	2	44	45	2	45	46	2	46	47	2	47	48	2	48	42	2	42	41	2	41	40	2	40	39	2	39	38	2	38	37	2	37	35	2	35	34	2	34	33	2	33	32	2	32	31	2	31	30	2	30	29	2	29	27	2	27	26	2	26	25	2	25	24	2	24	23	2	23	21	2	21	20	2	20	18	2	18	16	2	16	15	2	15	14	2	14	12	2	12	4	2	4	50	2	50	2	2	2	51	
CELL_TYPES 324
3	3	3	3	3	3	3	3	3	3	3	3	3	3	3	3	3	3	3	3	3	3	3	3	3	3	3	3	3	3	3	3	3	3	3	3	3	3	3	3	3	3	3	3	3	3	3	3	3	3	3	3	3	3	3	3	3	3	3	3	3	3	3	3	3	3	3	3	3	3	3	3	3	3	3	3	3	3	3	3	3	3	3	3	3	3	3	3	3	3	3	3	3	3	3	3	3	3	3	3	3	3	3	3	3	3	3	3	3	3	3	3	3	3	3	3	3	3	3	3	3	3	3	3	3	3	3	3	3	3	3	3	3	3	3	3	3	3	3	3	3	3	3	3	3	3	3	3	3	3	3	3	3	3	3	3	3	3	3	3	3	3	3	3	3	3	3	3	3	3	3	3	3	3	3	3	3	3	3	3	3	3	3	3	3	3	3	3	3	3	3	3	3	3	3	3	3	3	3	3	3	3	3	3	3	3	3	3	3	3	3	3	3	3	3	3	3	3	3	3	3	3	3	3	3	3	3	3	3	3	3	3	3	3	3	3	3	3	3	3	3	3	3	3	3	3	3	3	3	3	3	3	3	3	3	3	3	3	3	3	3	3	3	3	3	3	3	3	3	3	3	3	3	3	3	3	3	3	3	3	3	3	3	3	3	3	3	3	3	3	3	3	3	3	3	3	3	3	3	3	3	3	3	3	3	3	3	3	3	3	3	3	3	3	3	3	3	3	3	3	3	3	3	3	
POINT_DATA 324

SCALARS Density float 1
LOOKUP_TABLE default
1.147392e+00	8.324184e-01	1.139541e+00	1.219902e+00	1.140579e+00	1.093433e+00	1.075490e+00	1.038670e+00	1.051049e+00	6.713944e-01	1.263051e+00	1.151039e+00	1.138027e+00	1.166386e+00	1.137780e+00	1.142550e+00	1.143646e+00	1.164088e+00	1.141547e+00	1.163569e+00	1.140958e+00	1.145694e+00	1.162282e+00	1.147065e+00	1.144433e+00	1.140880e+00	1.147733e+00	1.150299e+00	1.160452e+00	1.147223e+00	1.142225e+00	1.150970e+00	1.152443e+00	1.151792e+00	1.149082e+00	1.149601e+00	1.156385e+00	1.155264e+00	1.155860e+00	1.150433e+00	1.146077e+00	1.147602e+00	1.158151e+00	1.155925e+00	1.158062e+00	1.159675e+00	1.159212e+00	1.159819e+00	1.158899e+00	1.141471e+00	1.140957e+00	1.138269e+00	1.135906e+00	1.134805e+00	1.135839e+00	1.137383e+00	1.138357e+00	1.138535e+00	1.137892e+00	1.137389e+00	1.136116e+00	1.135463e+00	1.135886e+00	1.137344e+00	1.138551e+00	1.139231e+00	1.139261e+00	1.139314e+00	1.139138e+00	1.139343e+00	1.140674e+00	1.142381e+00	1.143939e+00	1.145427e+00	1.146752e+00	1.147979e+00	1.148982e+00	1.149661e+00	1.150540e+00	1.152300e+00	1.154777e+00	1.157160e+00	1.159847e+00	1.162564e+00	1.165148e+00	1.167529e+00	1.169939e+00	1.172347e+00	1.174649e+00	1.176832e+00	1.179175e+00	1.181638e+00	1.184599e+00	1.188296e+00	1.192384e+00	1.196472e+00	1.200143e+00	1.204129e+00	1.208155e+00	1.211799e+00	1.215621e+00	1.219745e+00	1.223764e+00	1.227554e+00	1.231657e+00	1.236558e+00	1.241094e+00	1.245685e+00	1.249690e+00	1.253421e+00	1.257720e+00	1.262108e+00	1.266285e+00	1.271727e+00	1.278190e+00	1.284906e+00	1.288073e+00	1.291447e+00	1.294817e+00	1.299984e+00	1.303919e+00	1.305711e+00	1.305927e+00	1.315112e+00	1.318521e+00	1.318388e+00	1.320051e+00	1.320683e+00	1.322811e+00	1.324693e+00	1.326083e+00	1.326845e+00	1.327294e+00	1.327154e+00	1.326343e+00	1.324292e+00	1.322061e+00	1.318864e+00	1.315728e+00	1.311895e+00	1.306933e+00	1.301060e+00	1.293280e+00	1.282947e+00	1.268273e+00	1.252544e+00	1.189080e+00	1.098838e+00	1.024816e+00	9.101216e-01	1.211293e+00	1.182963e+00	1.199350e+00	1.195630e+00	1.185602e+00	1.185682e+00	1.184011e+00	1.181870e+00	1.179800e+00	1.177129e+00	1.175112e+00	1.174002e+00	1.172247e+00	1.170512e+00	1.170423e+00	1.170413e+00	1.169587e+00	1.169070e+00	1.168977e+00	1.168759e+00	1.168525e+00	1.168245e+00	1.167981e+00	1.168063e+00	1.168140e+00	1.168302e+00	1.168459e+00	1.168551e+00	1.168602e+00	1.168704e+00	1.169018e+00	1.169329e+00	1.169530e+00	1.169701e+00	1.169919e+00	1.170108e+00	1.170087e+00	1.170028e+00	1.170165e+00	1.170349e+00	1.170559e+00	1.170560e+00	1.171974e+00	1.171395e+00	1.171081e+00	1.170792e+00	1.170657e+00	1.170639e+00	1.170472e+00	1.170625e+00	1.170368e+00	1.171688e+00	1.171023e+00	1.170561e+00	1.170039e+00	1.169721e+00	1.169564e+00	1.169240e+00	1.169005e+00	1.168796e+00	1.168619e+00	1.168511e+00	1.168470e+00	1.168446e+00	1.168608e+00	1.168634e+00	1.168011e+00	1.167585e+00	1.167384e+00	1.167402e+00	1.167365e+00	1.167726e+00	1.167872e+00	1.167394e+00	1.166709e+00	1.166692e+00	1.166551e+00	1.166466e+00	1.166349e+00	1.165673e+00	1.164665e+00	1.164538e+00	1.164212e+00	1.163915e+00	1.163324e+00	1.162968e+00	1.162656e+00	1.162260e+00	1.161461e+00	1.159991e+00	1.158867e+00	1.158201e+00	1.157708e+00	1.157041e+00	1.155721e+00	1.155453e+00	1.155035e+00	1.153410e+00	1.151715e+00	1.149666e+00	1.146804e+00	1.134382e+00	1.133411e+00	1.133068e+00	1.128876e+00	1.127272e+00	1.122949e+00	1.137832e+00	1.107095e+00	1.089060e+00	1.076733e+00	1.060650e+00	1.041439e+00	1.016681e+00	9.941907e-01	9.656601e-01	9.418871e-01	8.745713e-01	8.380055e-01	8.380451e-01	8.790196e-01	9.082122e-01	9.165691e-01	9.095966e-01	8.982765e-01	9.078404e-01	9.603819e-01	1.025351e+00	1.094247e+00	1.140457e+00	1.163889e+00	1.165397e+00	1.173081e+00	1.211808e+00	1.264188e+00	1.304824e+00	1.333896e+00	1.347211e+00	1.363807e+00	1.395563e+00	1.436653e+00	1.473982e+00	1.498836e+00	1.514058e+00	1.532651e+00	1.557816e+00	1.560827e+00	1.591276e+00	1.627304e+00	1.641698e+00	1.665750e+00	1.681277e+00	1.701417e+00	1.677825e+00	1.695537e+00	1.703528e+00	1.703684e+00	1.703812e+00	1.725457e+00	1.709003e+00	1.730638e+00	1.738089e+00	1.708880e+00	1.725006e+00	1.721742e+00	1.706852e+00	1.696962e+00	1.674045e+00	1.647444e+00	1.605807e+00	1.546230e+00	1.438896e+00	1.312556e+00	1.206444e+00	
SCALARS X-Momentum float 1
LOOKUP_TABLE default
0.000000e+00	0.000000e+00	0.000000e+00	0.000000e+00	0.000000e+00	0.000000e+00	0.000000e+00	0.000000e+00	0.000000e+00	0.000000e+00	0.000000e+00	0.000000e+00	0.000000e+00	0.000000e+00	0.000000e+00	0.000000e+00	0.000000e+00	0.000000e+00	0.000000e+00	0.000000e+00	0.000000e+00	0.000000e+00	0.000000e+00	0.000000e+00	0.000000e+00	0.000000e+00	0.000000e+00	0.000000e+00	0.000000e+00	0.000000e+00	0.000000e+00	0.000000e+00	0.000000e+00	0.000000e+00	0.000000e+00	0.000000e+00	0.000000e+00	0.000000e+00	0.000000e+00	0.000000e+00	0.000000e+00	0.000000e+00	0.000000e+00	0.000000e+00	0.000000e+00	0.000000e+00	0.000000e+00	0.000000e+00	0.000000e+00	0.000000e+00	0.000000e+00	0.000000e+00	0.000000e+00	0.000000e+00	0.000000e+00	0.000000e+00	0.000000e+00	0.000000e+00	0.000000e+00	0.000000e+00	0.000000e+00	0.000000e+00	0.000000e+00	0.000000e+00	0.000000e+00	0.000000e+00	0.000000e+00	0.000000e+00	0.000000e+00	0.000000e+00	0.000000e+00	0.000000e+00	0.000000e+00	0.000000e+00	0.000000e+00	0.000000e+00	0.000000e+00	0.000000e+00	0.000000e+00	0.000000e+00	0.000000e+00	0.000000e+00	0.000000e+00	0.000000e+00	0.000000e+00	0.000000e+00	0.000000e+00	0.000000e+00	0.000000e+00	0.000000e+00	0.000000e+00	0.000000e+00	0.000000e+00	0.000000e+00	0.000000e+00	0.000000e+00	0.000000e+00	0.000000e+00	0.000000e+00	0.000000e+00	0.000000e+00	0.000000e+00	0.000000e+00	0.000000e+00	0.000000e+00	0.000000e+00	0.000000e+00	0.000000e+00	0.000000e+00	0.000000e+00	0.000000e+00	0.000000e+00	0.000000e+00	0.000000e+00	0.000000e+00	0.000000e+00	0.000000e+00	0.000000e+00	0.000000e+00	0.000000e+00	0.000000e+00	0.000000e+00	0.000000e+00	0.000000e+00	0.000000e+00	0.000000e+00	0.000000e+00	0.000000e+00	0.000000e+00	0.000000e+00	0.000000e+00	0.000000e+00	0.000000e+00	0.000000e+00	0.000000e+00	0.000000e+00	0.000000e+00	0.000000e+00	0.000000e+00	0.000000e+00	0.000000e+00	0.000000e+00	0.000000e+00	0.000000e+00	0.000000e+00	0.000000e+00	0.000000e+00	0.000000e+00	0.000000e+00	0.000000e+00	0.000000e+00	0.000000e+00	0.000000e+00	0.000000e+00	0.000000e+00	0.000000e+00	0.000000e+00	0.000000e+00	0.000000e+00	0.000000e+00	0.000000e+00	0.000000e+00	0.000000e+00	0.000000e+00	0.000000e+00	0.000000e+00	0.000000e+00	0.000000e+00	0.000000e+00	0.000000e+00	0.000000e+00	0.000000e+00	0.000000e+00	0.000000e+00	0.000000e+00	0.000000e+00	0.000000e+00	0.000000e+00	0.000000e+00	0.000000e+00	0.000000e+00	0.000000e+00	0.000000e+00	0.000000e+00	0.000000e+00	0.000000e+00	0.000000e+00	0.000000e+00	0.000000e+00	0.000000e+00	0.000000e+00	0.000000e+00	0.000000e+00	0.000000e+00	0.000000e+00	0.000000e+00	0.000000e+00	0.000000e+00	0.000000e+00	0.000000e+00	0.000000e+00	0.000000e+00	0.000000e+00	0.000000e+00	0.000000e+00	0.000000e+00	0.000000e+00	0.000000e+00	0.000000e+00	0.000000e+00	0.000000e+00	0.000000e+00	0.000000e+00	0.000000e+00	0.000000e+00	0.000000e+00	0.000000e+00	0.000000e+00	0.000000e+00	0.000000e+00	0.000000e+00	0.000000e+00	0.000000e+00	0.000000e+00	0.000000e+00	0.000000e+00	0.000000e+00	0.000000e+00	0.000000e+00	0.000000e+00	0.000000e+00	0.000000e+00	0.000000e+00	0.000000e+00	0.000000e+00	0.000000e+00	0.000000e+00	0.000000e+00	0.000000e+00	0.000000e+00	0.000000e+00	0.000000e+00	0.000000e+00	0.000000e+00	0.000000e+00	0.000000e+00	0.000000e+00	0.000000e+00	0.000000e+00	0.000000e+00	0.000000e+00	0.000000e+00	0.000000e+00	0.000000e+00	0.000000e+00	0.000000e+00	0.000000e+00	0.000000e+00	0.000000e+00	0.000000e+00	0.000000e+00	0.000000e+00	0.000000e+00	0.000000e+00	0.000000e+00	0.000000e+00	0.000000e+00	0.000000e+00	0.000000e+00	0.000000e+00	0.000000e+00	0.000000e+00	0.000000e+00	0.000000e+00	0.000000e+00	0.000000e+00	0.000000e+00	0.000000e+00	0.000000e+00	0.000000e+00	0.000000e+00	0.000000e+00	0.000000e+00	0.000000e+00	0.000000e+00	0.000000e+00	0.000000e+00	0.000000e+00	0.000000e+00	0.000000e+00	0.000000e+00	0.000000e+00	0.000000e+00	0.000000e+00	0.000000e+00	0.000000e+00	0.000000e+00	0.000000e+00	0.000000e+00	0.000000e+00	0.000000e+00	0.000000e+00	0.000000e+00	0.000000e+00	0.000000e+00	0.000000e+00	0.000000e+00	0.000000e+00	0.000000e+00	0.000000e+00	0.000000e+00	0.000000e+00	0.000000e+00	0.000000e+00	0.000000e+00	0.000000e+00	0.000000e+00	0.000000e+00	0.000000e+00	0.000000e+00	0.000000e+00	0.000000e+00	0.000000e+00	0.000000e+00	
SCALARS Y-Momentum float 1
LOOKUP_TABLE default
-3.415383e+02	-2.477818e+02	-3.392014e+02	-3.631221e+02	-3.395103e+02	-3.254768e+02	-3.201356e+02	-3.091758e+02	-3.128604e+02	-1.998506e+02	-3.759660e+02	-3.426239e+02	-3.387507e+02	-3.471921e+02	-3.386774e+02	-3.400970e+02	-3.404233e+02	-3.465084e+02	-3.397985e+02	-3.463538e+02	-3.396234e+02	-3.410330e+02	-3.459706e+02	-3.414410e+02	-3.406577e+02	-3.396001e+02	-3.416400e+02	-3.424037e+02	-3.454259e+02	-3.414883e+02	-3.400004e+02	-3.426034e+02	-3.430420e+02	-3.428481e+02	-3.420416e+02	-3.421960e+02	-3.442152e+02	-3.438816e+02	-3.440590e+02	-3.424437e+02	-3.411469e+02	-3.416008e+02	-3.447410e+02	-3.440785e+02	-3.447145e+02	-3.451947e+02	-3.450568e+02	-3.452376e+02	-3.449636e+02	-3.397760e+02	-3.396229e+02	-3.388229e+02	-3.381193e+02	-3.377918e+02	-3.380994e+02	-3.385591e+02	-3.388490e+02	-3.389022e+02	-3.387105e+02	-3.385609e+02	-3.381819e+02	-3.379875e+02	-3.381136e+02	-3.385474e+02	-3.389067e+02	-3.391093e+02	-3.391181e+02	-3.391338e+02	-3.390815e+02	-3.391425e+02	-3.395387e+02	-3.400470e+02	-3.405107e+02	-3.409534e+02	-3.413480e+02	-3.417131e+02	-3.420117e+02	-3.422137e+02	-3.424755e+02	-3.429993e+02	-3.437367e+02	-3.444460e+02	-3.452459e+02	-3.460546e+02	-3.468238e+02	-3.475326e+02	-3.482500e+02	-3.489668e+02	-3.496518e+02	-3.503017e+02	-3.509992e+02	-3.517322e+02	-3.526138e+02	-3.537140e+02	-3.549311e+02	-3.561479e+02	-3.572406e+02	-3.584269e+02	-3.596255e+02	-3.607102e+02	-3.618477e+02	-3.630755e+02	-3.642716e+02	-3.653998e+02	-3.666213e+02	-3.680800e+02	-3.694302e+02	-3.707970e+02	-3.719890e+02	-3.730995e+02	-3.743791e+02	-3.756855e+02	-3.769288e+02	-3.785486e+02	-3.804723e+02	-3.824717e+02	-3.834142e+02	-3.844187e+02	-3.854216e+02	-3.869598e+02	-3.881311e+02	-3.886646e+02	-3.887288e+02	-3.914628e+02	-3.924775e+02	-3.924378e+02	-3.929331e+02	-3.931212e+02	-3.937546e+02	-3.943149e+02	-3.947284e+02	-3.949554e+02	-3.950890e+02	-3.950474e+02	-3.948058e+02	-3.941955e+02	-3.935312e+02	-3.925797e+02	-3.916460e+02	-3.905052e+02	-3.890282e+02	-3.872800e+02	-3.849641e+02	-3.818885e+02	-3.775205e+02	-3.728385e+02	-3.539474e+02	-3.270857e+02	-3.050520e+02	-2.709114e+02	-3.605594e+02	-3.521267e+02	-3.570045e+02	-3.558973e+02	-3.529122e+02	-3.529359e+02	-3.524385e+02	-3.518013e+02	-3.511851e+02	-3.503902e+02	-3.497896e+02	-3.494593e+02	-3.489369e+02	-3.484204e+02	-3.483939e+02	-3.483909e+02	-3.481452e+02	-3.479912e+02	-3.479634e+02	-3.478987e+02	-3.478288e+02	-3.477456e+02	-3.476671e+02	-3.476914e+02	-3.477143e+02	-3.477626e+02	-3.478094e+02	-3.478367e+02	-3.478521e+02	-3.478821e+02	-3.479756e+02	-3.480683e+02	-3.481282e+02	-3.481791e+02	-3.482439e+02	-3.483003e+02	-3.482941e+02	-3.482763e+02	-3.483172e+02	-3.483718e+02	-3.484346e+02	-3.484346e+02	-3.488557e+02	-3.486832e+02	-3.485899e+02	-3.485038e+02	-3.484636e+02	-3.484584e+02	-3.484086e+02	-3.484542e+02	-3.483776e+02	-3.487706e+02	-3.485725e+02	-3.484351e+02	-3.482797e+02	-3.481850e+02	-3.481383e+02	-3.480419e+02	-3.479719e+02	-3.479097e+02	-3.478570e+02	-3.478249e+02	-3.478126e+02	-3.478054e+02	-3.478537e+02	-3.478614e+02	-3.476761e+02	-3.475492e+02	-3.474892e+02	-3.474947e+02	-3.474838e+02	-3.475912e+02	-3.476347e+02	-3.474924e+02	-3.472884e+02	-3.472833e+02	-3.472413e+02	-3.472162e+02	-3.471813e+02	-3.469801e+02	-3.466800e+02	-3.466421e+02	-3.465451e+02	-3.464569e+02	-3.462809e+02	-3.461749e+02	-3.460819e+02	-3.459642e+02	-3.457264e+02	-3.452888e+02	-3.449542e+02	-3.447560e+02	-3.446091e+02	-3.444107e+02	-3.440177e+02	-3.439378e+02	-3.438136e+02	-3.433297e+02	-3.428251e+02	-3.422154e+02	-3.413633e+02	-3.376659e+02	-3.373767e+02	-3.372746e+02	-3.360270e+02	-3.355494e+02	-3.342625e+02	-3.386927e+02	-3.295434e+02	-3.241752e+02	-3.205059e+02	-3.157184e+02	-3.100001e+02	-3.026302e+02	-2.959358e+02	-2.874432e+02	-2.803668e+02	-2.603293e+02	-2.494449e+02	-2.494567e+02	-2.616534e+02	-2.703430e+02	-2.728306e+02	-2.707551e+02	-2.673855e+02	-2.702323e+02	-2.858721e+02	-3.052111e+02	-3.257191e+02	-3.394743e+02	-3.464491e+02	-3.468979e+02	-3.491851e+02	-3.607129e+02	-3.763046e+02	-3.884004e+02	-3.970542e+02	-4.010177e+02	-4.059576e+02	-4.154104e+02	-4.276413e+02	-4.387527e+02	-4.461511e+02	-4.506819e+02	-4.562165e+02	-4.637072e+02	-4.646036e+02	-4.736670e+02	-4.843914e+02	-4.886759e+02	-4.958356e+02	-5.004572e+02	-5.064524e+02	-4.994298e+02	-5.047021e+02	-5.070808e+02	-5.071271e+02	-5.071653e+02	-5.136083e+02	-5.087103e+02	-5.151502e+02	-5.173682e+02	-5.086738e+02	-5.134740e+02	-5.125022e+02	-5.080702e+02	-5.051263e+02	-4.983047e+02	-4.903864e+02	-4.779924e+02	-4.602584e+02	-4.283091e+02	-3.907019e+02	-3.591161e+02	
SCALARS Energy float 1
LOOKUP_TABLE default