# vtk DataFile Version 3.0
vtk output
ASCII

DATASET UNSTRUCTURED_GRID
POINTS 720 float
0 0.00845121394485145 0.0  0 0.0146379319381173 0.0  0 0.018897488873082 0.0  0 0.0223598103746781 0.0  0 0.0253536418345543 0.0  0 0.0280295056780916 0.0  0 0.0304712852180782 0.0  0 0.0327314108636455 0.0  0 0.0348452477593154 0.0  0 0.0368379875358492 0.0  0 0.0387283276165481 0.0  0 0.0405305982469786 0.0  0 0.0422560697242572 0.0  0 0.0439137958143519 0.0  0 0.0455111799133784 0.0  0 0.047054367824796 0.0  0 0.0485485279454949 0.0  0 0.0499980559617852 0.0  0 0.0514067275192762 0.0  0 0.0527778141696339 0.0  -0.0014675379005968 0.00832282101525459 0.0  -0.00254185020586663 0.0144155488607229 0.0  -0.00328151450529178 0.0186103935546731 0.0  -0.00388274032454097 0.0220201146128658 0.0  -0.00440261370179041 0.0249684630457638 0.0  -0.00486727258190548 0.0276036745048843 0.0  -0.00529128314928855 0.0300083579270097 0.0  -0.00568374984893961 0.0322341471855461 0.0  -0.00605081377375781 0.0343158701490051 0.0  -0.0063968494045173 0.0362783357306714 0.0  -0.00672510351470143 0.0381399572979734 0.0  -0.00703806452533831 0.0399148473878475 0.0  -0.00733768950298402 0.041614105076273 0.0  -0.00762555061759988 0.0432466465821688 0.0  -0.00790293345542996 0.0448197628274285 0.0  -0.00817090522404527 0.0463395062469473 0.0  -0.00843036340614723 0.0478109667180532 0.0  -0.0086820713046532 0.0492384731467043 0.0  -0.00892668455354275 0.0506257438179692 0.0  -0.00916477125180082 0.051976000581293 0.0  -0.00289048540469398 0.00794154338065987 0.0  -0.00500646757946626 0.0137551566258152 0.0  -0.00646332185286673 0.017757830845419 0.0  -0.00764750554908217 0.0210113488112572 0.0  -0.00867145621408195 0.0238246301419796 0.0  -0.00958665554936852 0.0263391196499794 0.0  -0.0104217933376044 0.0286336418652908 0.0  -0.0111948018348354 0.0307574652564794 0.0  -0.0119177766328595 0.0327438221888854 0.0  -0.0125993337768403 0.0346163850520407 0.0  -0.0132458681621752 0.0363927236766494 0.0  -0.0138622810215067 0.0380863040887241 0.0  -0.0144524270234699 0.0397077169032993 0.0  -0.0150194027383988 0.0412654698774456 0.0  -0.015565740276894 0.0427665199278615 0.0  -0.0160935416275355 0.0442166422207067 0.0  -0.0166045744861684 0.0456206934604 0.0  -0.0171003422660546 0.0469828042409304 0.0  -0.0175821363140464 0.0483065225086157 0.0  -0.0180510755667137 0.0495949225164149 0.0  -0.00422560697242572 0.00731896596905865 0.0  -0.00731896596905865 0.0126768209172772 0.0  -0.00944874443654099 0.0163657054318228 0.0  -0.011179905187339 0.0193641638082741 0.0  -0.0126768209172772 0.021956897907176 0.0  -0.0140147528390458 0.0242742639727475 0.0  -0.0152356426090391 0.026388907084817 0.0  -0.0163657054318228 0.028346233309623 0.0  -0.0174226238796577 0.0301768697607299 0.0  -0.0184189937679246 0.0319026330303399 0.0  -0.019364163808274 0.0335397155620171 0.0  -0.0202652991234893 0.0351005277124645 0.0  -0.0211280348621286 0.0365948298452933 0.0  -0.0219568979071759 0.0380304627518315 0.0  -0.0227555899566892 0.0394138379611897 0.0  -0.023527183912398 0.0407502778952905 0.0  -0.0242742639727475 0.0420442585171373 0.0  -0.0249990279808926 0.043299586602742 0.0  -0.0257033637596381 0.0445195319571178 0.0  -0.026388907084817 0.0457069278271173 0.0  -0.00543233561056061 0.00647400548006307 0.0  -0.00940908128125667 0.0112133064199486 0.0  -0.0121470717018063 0.0144763163401272 0.0  -0.0143726090637836 0.0171286084867162 0.0  -0.0162970068316818 0.0194220164401892 0.0  -0.0180170189555158 0.0214718470680739 0.0  -0.0195865645894053 0.0233423587160022 0.0  -0.0210393453507107 0.0250737154075398 0.0  -0.0223980935161456 0.0266930084151276 0.0  -0.023679001953831 0.0282195356475234 0.0  -0.0248940891357981 0.0296676201619479 0.0  -0.0260525663663408 0.0310482395633857 0.0  -0.027161678052803 0.0323700274003153 0.0  -0.02822724384377 0.0336399192598457 0.0  -0.0292540225505345 0.0348635864724315 0.0  -0.0302459646194118 0.0360457369966614 0.0  -0.0312063922318848 0.0371903300542528 0.0  -0.0321381308806497 0.0383007329362772 0.0  -0.0330436075039228 0.039379837955073 0.0  -0.0339249250145793 0.0404301512646141 0.0  -0.00647400548006307 0.00543233561056061 0.0  -0.0112133064199486 0.00940908128125667 0.0  -0.0144763163401272 0.0121470717018063 0.0  -0.0171286084867162 0.0143726090637836 0.0  -0.0194220164401892 0.0162970068316818 0.0  -0.0214718470680739 0.0180170189555158 0.0  -0.0233423587160023 0.0195865645894053 0.0  -0.0250737154075398 0.0210393453507107 0.0  -0.0266930084151276 0.0223980935161456 0.0  -0.0282195356475234 0.023679001953831 0.0  -0.0296676201619479 0.0248940891357981 0.0  -0.0310482395633857 0.0260525663663408 0.0  -0.0323700274003153 0.027161678052803 0.0  -0.0336399192598457 0.02822724384377 0.0  -0.0348635864724315 0.0292540225505345 0.0  -0.0360457369966614 0.0302459646194118 0.0  -0.0371903300542528 0.0312063922318848 0.0  -0.0383007329362772 0.0321381308806497 0.0  -0.039379837955073 0.0330436075039228 0.0  -0.0404301512646141 0.0339249250145793 0.0  -0.00731896596905865 0.00422560697242572 0.0  -0.0126768209172772 0.00731896596905865 0.0  -0.0163657054318228 0.009448744436541 0.0  -0.019364163808274 0.011179905187339 0.0  -0.021956897907176 0.0126768209172772 0.0  -0.0242742639727475 0.0140147528390458 0.0  -0.026388907084817 0.0152356426090391 0.0  -0.028346233309623 0.0163657054318228 0.0  -0.0301768697607299 0.0174226238796577 0.0  -0.0319026330303399 0.0184189937679246 0.0  -0.0335397155620171 0.0193641638082741 0.0  -0.0351005277124645 0.0202652991234893 0.0  -0.0365948298452933 0.0211280348621286 0.0  -0.0380304627518315 0.021956897907176 0.0  -0.0394138379611897 0.0227555899566892 0.0  -0.0407502778952904 0.023527183912398 0.0  -0.0420442585171373 0.0242742639727475 0.0  -0.043299586602742 0.0249990279808926 0.0  -0.0445195319571178 0.0257033637596381 0.0  -0.0457069278271173 0.026388907084817 0.0  -0.00794154338065987 0.00289048540469398 0.0  -0.0137551566258152 0.00500646757946627 0.0  -0.017757830845419 0.00646332185286673 0.0  -0.0210113488112572 0.00764750554908217 0.0  -0.0238246301419796 0.00867145621408195 0.0  -0.0263391196499794 0.00958665554936852 0.0  -0.0286336418652908 0.0104217933376044 0.0  -0.0307574652564794 0.0111948018348354 0.0  -0.0327438221888854 0.0119177766328595 0.0  -0.0346163850520407 0.0125993337768403 0.0  -0.0363927236766493 0.0132458681621752 0.0  -0.0380863040887241 0.0138622810215067 0.0  -0.0397077169032993 0.0144524270234699 0.0  -0.0412654698774456 0.0150194027383988 0.0  -0.0427665199278615 0.015565740276894 0.0  -0.0442166422207067 0.0160935416275355 0.0  -0.0456206934604 0.0166045744861684 0.0  -0.0469828042409304 0.0171003422660546 0.0  -0.0483065225086157 0.0175821363140464 0.0  -0.0495949225164149 0.0180510755667137 0.0  -0.00832282101525459 0.0014675379005968 0.0  -0.0144155488607229 0.00254185020586663 0.0  -0.0186103935546731 0.00328151450529178 0.0  -0.0220201146128658 0.00388274032454097 0.0  -0.0249684630457638 0.00440261370179041 0.0  -0.0276036745048843 0.00486727258190548 0.0  -0.0300083579270097 0.00529128314928855 0.0  -0.0322341471855461 0.00568374984893962 0.0  -0.0343158701490051 0.00605081377375781 0.0  -0.0362783357306714 0.00639684940451731 0.0  -0.0381399572979734 0.00672510351470143 0.0  -0.0399148473878475 0.00703806452533832 0.0  -0.041614105076273 0.00733768950298402 0.0  -0.0432466465821688 0.00762555061759988 0.0  -0.0448197628274285 0.00790293345542996 0.0  -0.0463395062469473 0.00817090522404527 0.0  -0.0478109667180532 0.00843036340614724 0.0  -0.0492384731467043 0.0086820713046532 0.0  -0.0506257438179692 0.00892668455354275 0.0  -0.051976000581293 0.00916477125180083 0.0  -0.00845121394485145 5.1748760532359e-19 0.0  -0.0146379319381173 8.96314824707608e-19 0.0  -0.018897488873082 1.15713746301713e-18 0.0  -0.0223598103746781 1.36914351024456e-18 0.0  -0.0253536418345543 1.55246281597077e-18 0.0  -0.0280295056780916 1.71631222051787e-18 0.0  -0.0304712852180782 1.86582809541128e-18 0.0  -0.0327314108636455 2.00422087728702e-18 0.0  -0.0348452477593154 2.1336560566971e-18 0.0  -0.0368379875358492 2.25567617614039e-18 0.0  -0.0387283276165481 2.37142612259678e-18 0.0  -0.0405305982469786 2.48178337053448e-18 0.0  -0.0422560697242572 2.58743802661795e-18 0.0  -0.0439137958143519 2.68894447412282e-18 0.0  -0.0455111799133784 2.78675604031691e-18 0.0  -0.047054367824796 2.88124904712693e-18 0.0  -0.0485485279454949 2.97273996758831e-18 0.0  -0.0499980559617852 3.06149795985952e-18 0.0  -0.0514067275192762 3.14775421555609e-18 0.0  -0.0527778141696339 3.2317090594418e-18 0.0  -0.00832282101525459 -0.0014675379005968 0.0  -0.0144155488607229 -0.00254185020586663 0.0  -0.0186103935546731 -0.00328151450529178 0.0  -0.0220201146128658 -0.00388274032454097 0.0  -0.0249684630457638 -0.00440261370179041 0.0  -0.0276036745048843 -0.00486727258190547 0.0  -0.0300083579270097 -0.00529128314928855 0.0  -0.0322341471855461 -0.00568374984893961 0.0  -0.0343158701490051 -0.00605081377375781 0.0  -0.0362783357306714 -0.0063968494045173 0.0  -0.0381399572979734 -0.00672510351470143 0.0  -0.0399148473878475 -0.00703806452533831 0.0  -0.041614105076273 -0.00733768950298401 0.0  -0.0432466465821688 -0.00762555061759988 0.0  -0.0448197628274285 -0.00790293345542996 0.0  -0.0463395062469473 -0.00817090522404526 0.0  -0.0478109667180532 -0.00843036340614723 0.0  -0.0492384731467043 -0.0086820713046532 0.0  -0.0506257438179692 -0.00892668455354275 0.0  -0.051976000581293 -0.00916477125180082 0.0  -0.00794154338065987 -0.00289048540469398 0.0  -0.0137551566258152 -0.00500646757946626 0.0  -0.017757830845419 -0.00646332185286673 0.0  -0.0210113488112572 -0.00764750554908217 0.0  -0.0238246301419796 -0.00867145621408195 0.0  -0.0263391196499794 -0.00958665554936852 0.0  -0.0286336418652908 -0.0104217933376044 0.0  -0.0307574652564794 -0.0111948018348354 0.0  -0.0327438221888854 -0.0119177766328595 0.0  -0.0346163850520407 -0.0125993337768403 0.0  -0.0363927236766494 -0.0132458681621752 0.0
[...]
POINT_DATA 720
SCALARS PT/PT_inf float
LOOKUP_TABLE default
0.548169270984575 0.548169270984575 0.548169270984575 0.548169270984575 0.548169270984575 0.548169270984575 0.548169270984575 0.548169270984575 0.548169270984575 0.548169270984575 0.548169270984575 0.548169270984575 0.548169270984575 0.548169270984575 0.548169270984575 0.548169270984575 0.548169270984575 0.548169270984575 0.548169270984575 0.548169270984575 0.54799004110502 0.548126456157445 0.548126456157445 0.548613764969079 0.548613764969079 0.549160065783467 0.549160065783467 0.549160065783467 0.549515099981156 0.549515099981156 0.549515099981156 0.54972493635557 0.54972493635557 0.54972493635557 0.549897348276063 0.549897348276063 0.549897348276063 0.549897348276063 0.550096310848062 0.550096310848062 0.548126456157445 0.549160065783467 0.549515099981156 0.54972493635557 0.549897348276063 0.550096310848062 0.550388018514397 0.550904647632365 0.550904647632365 0.551590953102332 0.552291398973225 0.552291398973225 0.552983834078152 0.553623022364469 0.553623022364469 0.554235201691677 0.554235201691677 0.55477467060864 0.55477467060864 0.555285731165877 0.548613764969079 0.54972493635557 0.550096310848062 0.550904647632365 0.551590953102332 0.552291398973225 0.553623022364469 0.554235201691677 0.55477467060864 0.555285731165877 0.555842826293294 0.556645960932284 0.557574838678074 0.558636229539922 0.558636229539922 0.559766431191134 0.56091218349384 0.562022032749989 0.563097204336283 0.56416720568891 0.549160065783467 0.550096310848062 0.551590953102332 0.552983834078152 0.554235201691677 0.555285731165877 0.555842826293294 0.557574838678074 0.558636229539922 0.559766431191134 0.562022032749989 0.563097204336283 0.565237676263367 0.566284222316423 0.568382538073674 0.569530578261962 0.570808512326096 0.572286349344144 0.573914743004128 0.573914743004128 0.549515099981156 0.550904647632365 0.552983834078152 0.55477467060864 0.555842826293294 0.557574838678074 0.559766431191134 0.562022032749989 0.56416720568891 0.566284222316423 0.568382538073674 0.570808512326096 0.572286349344144 0.573914743004128 0.575594004392551 0.578960909173975 0.58221143808557 0.58547112343919 0.588733572182307 0.590444754442749 0.54972493635557 0.551590953102332 0.554235201691677 0.555842826293294 0.558636229539922 0.56091218349384 0.56416720568891 0.566284222316423 0.569530578261962 0.570808512326096 0.573914743004128 0.577275230063584 0.58060712425715 0.583828056782048 0.588733572182307 0.590444754442749 0.594168909102357 0.596121750972089 0.599820330995151 0.603394993860455 0.549897348276063 0.552291398973225 0.555285731165877 0.557574838678074 0.56091218349384 0.56416720568891 0.567310140270904 0.569530578261962 0.572286349344144 0.575594004392551 0.578960909173975 0.583828056782048 0.588733572182307 0.59227511677171 0.596121750972089 0.598014829059499 0.603394993860455 0.605202609439245 0.609082564818325 0.614155151408259 0.549897348276063 0.552983834078152 0.555285731165877 0.558636229539922 0.562022032749989 0.565237676263367 0.568382538073674 0.572286349344144 0.575594004392551 0.578960909173975 0.583828056782048 0.588733572182307 0.59227511677171 0.596121750972089 0.601612782687721 0.605202609439245 0.607123293820741 0.612601975962045 0.617271872948403 0.618744889897995 0.549897348276063 0.552983834078152 0.555842826293294 0.558636229539922 0.562022032749989 0.566284222316423 0.569530578261962 0.572286349344144 0.575594004392551 0.58060712425715 0.58547112343919 0.590444754442749 0.594168909102357 0.598014829059499 0.603394993860455 0.607123293820741 0.611006563451272 0.615662341861316 0.618744889897995 0.619970484150751 0.549897348276063 0.552983834078152 0.555285731165877 0.558636229539922 0.562022032749989 0.565237676263367 0.568382538073674 0.572286349344144 0.575594004392551 0.578960909173975 0.583828056782048 0.588733572182307 0.59227511677171 0.596121750972089 0.601612782687721 0.605202609439245 0.607123293820741 0.612601975962045 0.617271872948403 0.618744889897995 0.549897348276063 0.552291398973225 0.555285731165877 0.557574838678074 0.56091218349384 0.56416720568891 0.567310140270904 0.569530578261962 0.572286349344144 0.575594004392551 0.578960909173975 0.583828056782048 0.588733572182307 0.59227511677171 0.596121750972089 0.598014829059499 0.603394993860455 0.605202609439245 0.609082564818325 0.614155151408259 0.54972493635557 0.551590953102332 0.554235201691677 0.555842826293294 0.558636229539922 0.56091218349384 0.56416720568891 0.566284222316423 0.569530578261962 0.570808512326096 0.573914743004128 0.577275230063584 0.58060712425715 0.583828056782048 0.588733572182307 0.590444754442749 0.594168909102357 0.596121750972089 0.599820330995151 0.603394993860455 0.549515099981156 0.550904647632365 0.552983834078152 0.55477467060864 0.555842826293294 0.557574838678074 0.559766431191134 0.562022032749989 0.56416720568891 0.566284222316423 0.568382538073674 0.570808512326096 0.572286349344144 0.573914743004128 0.575594004392551 0.578960909173975 0.58221143808557 0.58547112343919 0.588733572182307 0.590444754442749 0.549160065783467 0.550096310848062 0.551590953102332 0.552983834078152 0.554235201691677 0.555285731165877 0.555842826293294 0.557574838678074 0.558636229539922 0.559766431191134 0.562022032749989 0.563097204336283 0.565237676263367 0.566284222316423 0.568382538073674 0.569530578261962 0.570808512326096 0.572286349344144 0.573914743004128 0.573914743004128 0.548613764969079 0.54972493635557 0.550096310848062 0.550904647632365 0.551590953102332 0.552291398973225 0.553623022364469 0.554235201691677 0.55477467060864 0.555285731165877 0.555842826293294 0.556645960932284 0.557574838678074 0.558636229539922 0.558636229539922 0.559766431191134 0.56091218349384 0.562022032749989 0.563097204336283 0.56416720568891 0.548126456157445 0.549160065783467 0.549515099981156 0.54972493635557 0.549897348276063 0.550096310848062 0.550388018514397 0.550904647632365 0.550904647632365 0.551590953102332 0.552291398973225 0.552291398973225 0.552983834078152 0.553623022364469 0.553623022364469 0.554235201691677 0.554235201691677 0.55477467060864 0.55477467060864 0.555285731165877 0.54799004110502 0.548126456157445 0.548126456157445 0.548613764969079 0.548613764969079 0.549160065783467 0.549160065783467 0.549160065783467 0.549515099981156 0.549515099981156 0.549515099981156 0.54972493635557 0.54972493635557 0.54972493635557 0.549897348276063 0.549897348276063 0.549897348276063 0.549897348276063 0.550096310848062 0.550096310848062 0.548169270984575 0.548169270984575 0.548169270984575 0.548169270984575 0.548169270984575 0.548169270984575 0.548169270984575 0.548169270984575 0.548169270984575 0.548169270984575 0.548169270984575 0.548169270984575 0.548169270984575 0.548169270984575 0.548169270984575 0.548169270984575 0.548169270984575 0.548169270984575 0.548169270984575 0.548169270984575 0.548229252676386 0.548260656010782 0.548260656010782 0.548107571261873 0.548107571261873 0.547725712561057 0.547725712561057 0.547725712561057 0.547253518567298 0.547253518567298 0.547253518567298 0.547253518567298 0.544266010144033 0.544266010144033 0.544266010144033 0.54345422482195 0.54345422482195 0.54345422482195 0.54345422482195 0.542617640918642 0.548260656010782 0.547725712561057 0.547253518567298 0.544266010144033 0.54345422482195 0.542617640918642 0.541695953114034 0.541695953114034 0.54066995271011 0.53954950005042 0.53954950005042 0.538287259245473 0.538287259245473 0.536733026102096 0.536733026102096 0.535144360428618 0.535144360428618 0.535144360428618 0.533321074269422 0.533321074269422 0.548107571261873 0.544266010144033 0.542617640918642 0.541695953114034 0.53954950005042 0.538287259245473 0.536733026102096 0.535144360428618 0.533321074269422 0.533321074269422 0.530945770736651 0.528607966248878 0.528607966248878 0.52591583107964 0.52591583107964 0.522667677552224 0.522667677552224 0.519035528549772 0.519035528549772 0.519035528549772 0.547725712561057 0.542617640918642 0.54066995271011 0.538287259245473 0.535144360428618 0.533321074269422 0.530945770736651 0.528607966248878 0.52591583107964 0.522667677552224 0.519035528549772 0.519035528549772 0.514906662915063 0.514906662915063 0.51111016189915 0.505190942482641 0.498791974900943 0.498791974900943 0.491437349657098 0.491437349657098 0.547253518567298 0.541695953114034 0.538287259245473 0.535144360428618 0.530945770736651 0.52591583107964 0.522667677552224 0.519035528549772 0.514906662915063 0.514906662915063 0.505190942482641 0.505190942482641 0.498791974900943 0.491437349657098 0.491437349657098 0.482575304365807 0.482575304365807 0.472535710862048 0.472535710862048 0.472535710862048 0.544266010144033 0.53954950005042 0.535144360428618 0.530945770736651 0.52591583107964 0.522667677552224 0.519035528549772 0.51111016189915 0.505190942482641 0.498791974900943 0.491437349657098 0.491437349657098 0.482575304365807 0.482575304365807 0.472535710862048 0.472535710862048 0.461722708827653 0.461722708827653 0.461722708827653 0.44966048765933 0.544266010144033 0.538287259245473 0.533321074269422 0.528607966248878 0.522667677552224 0.519035528549772 0.51111016189915 0.505190942482641 0.498791974900943 0.491437349657098 0.482575304365807 0.482575304365807 0.472535710862048 0.472535710862048 0.461722708827653 0.461722708827653 0.44966048765933 0.44966048765933 0.430864775933108 0.408590482494015 0.54345422482195 0.538287259245473 0.530945770736651 0.52591583107964 0.519035528549772 0.514906662915063 0.505190942482641 0.498791974900943 0.491437349657098 0.482575304365807 0.482575304365807 0.472535710862048 0.472535710862048 0.461722708827653 0.461722708827653 0.44966048765933 0.430864775933108 0.408590482494015 0.408590482494015 0.373738441790674 0.54345422482195 0.536733026102096 0.530945770736651 0.52591583107964 0.519035528549772 0.514906662915063 0.505190942482641 0.498791974900943 0.491437349657098 0.482575304365807 0.472535710862048 0.472535710862048 0.461722708827653 0.461722708827653 0.44966048765933 0.44966048765933 0.430864775933108 0.408590482494015 0.373738441790674 0.373738441790674 0.54345422482195 0.538287259245473 0.530945770736651 0.52591583107964 0.519035528549772 0.514906662915063 0.505190942482641 0.498791974900943 0.491437349657098 0.482575304365807 0.482575304365807 0.472535710862048 0.472535710862048 0.461722708827653 0.461722708827653 0.44966048765933 0.430864775933108 0.408590482494015 0.408590482494015 0.373738441790674 0.544266010144033 0.538287259245473 0.533321074269422 0.528607966248878 0.522667677552224 0.519035528549772 0.51111016189915 0.505190942482641 0.498791974900943 0.491437349657098 0.482575304365807 0.482575304365807 0.472535710862048 0.472535710862048 0.461722708827653 0.461722708827653 0.44966048765933 0.44966048765933 0.430864775933108 0.408590482494015 0.544266010144033 0.53954950005042 0.535144360428618 0.530945770736651 0.52591583107964 0.522667677552224 0.519035528549772 0.51111016189915 0.505190942482641 0.498791974900943 0.491437349657098 0.491437349657098 0.482575304365807 0.482575304365807 0.472535710862048 0.472535710862048 0.461722708827653 0.461722708827653 0.461722708827653 0.44966048765933 0.547253518567298 0.541695953114034 0.538287259245473 0.535144360428618 0.530945770736651 0.52591583107964 0.522667677552224 0.519035528549772 0.514906662915063 0.514906662915063 0.505190942482641 0.505190942482641 0.498791974900943 0.491437349657098 0.491437349657098 0.482575304365807 0.482575304365807 0.472535710862048 0.472535710862048 0.472535710862048 0.547725712561057 0.542617640918642 0.54066995271011 0.538287259245473 0.535144360428618 0.533321074269422 0.530945770736651 0.528607966248878 0.52591583107964 0.522667677552224 0.519035528549772 0.519035528549772 0.514906662915063 0.514906662915063 0.51111016189915 0.505190942482641 0.498791974900943 0.498791974900943 0.491437349657098 0.491437349657098 0.548107571261873 0.544266010144033 0.542617640918642 0.541695953114034 0.53954950005042 0.538287259245473 0.536733026102096 0.535144360428618 0.533321074269422 0.533321074269422 0.530945770736651 0.528607966248878 0.528607966248878 0.52591583107964 0.52591583107964 0.522667677552224 0.522667677552224 0.519035528549772 0.519035528549772 0.519035528549772 0.548260656010782 0.547725712561057 0.547253518567298 0.544266010144033 0.54345422482195 0.542617640918642 0.541695953114034 0.541695953114034 0.54066995271011 0.53954950005042 0.53954950005042 0.538287259245473 0.538287259245473 0.536733026102096 0.536733026102096 0.535144360428618 0.535144360428618 0.535144360428618 0.533321074269422 0.533321074269422 0.548229252676386 0.548260656010782 0.548260656010782 0.548107571261873 0.548107571261873 0.547725712561057 0.547725712561057 0.547725712561057 0.547253518567298 0.547253518567298 0.547253518567298 0.547253518567298 0.544266010144033 0.544266010144033 0.544266010144033 0.54345422482195 0.54345422482195 0.54345422482195 0.54345422482195 0.542617640918642 SCALARS TT/TT_inf float
LOOKUP_TABLE default