# vtk DataFile Version 3.0
vtk output
ASCII
DATASET UNSTRUCTURED_GRID
POINTS 324 float
3.085804e-01	-3.230213e-03	0.0	3.089526e-01	-2.604522e-03	0.0	3.492715e-01	5.209667e-03	0.0	3.095147e-01	-1.961682e-03	0.0	3.476966e-01	4.400654e-03	0.0	3.101596e-01	-1.396191e-03	0.0	3.109480e-01	-1.059579e-03	0.0	3.117682e-01	-7.994838e-04	0.0	3.126276e-01	-7.984141e-04	0.0	3.134890e-01	-8.638602e-04	0.0	3.143517e-01	-9.256926e-04	0.0	3.152157e-01	-9.854075e-04	0.0	3.469004e-01	4.013196e-03	0.0	3.160808e-01	-1.043356e-03	0.0	3.461063e-01	3.621450e-03	0.0	3.453074e-01	3.239690e-03	0.0	3.444980e-01	2.880663e-03	0.0	3.169474e-01	-1.093644e-03	0.0	3.436813e-01	2.538755e-03	0.0	3.178151e-01	-1.141949e-03	0.0	3.428659e-01	2.193951e-03	0.0	3.420457e-01	1.861087e-03	0.0	3.186839e-01	-1.187218e-03	0.0	3.412151e-01	1.555801e-03	0.0	3.403773e-01	1.271143e-03	0.0	3.395409e-01	9.828459e-04	0.0	3.387002e-01	7.085158e-04	0.0	3.378498e-01	4.667364e-04	0.0	3.195542e-01	-1.220909e-03	0.0	3.369925e-01	2.518513e-04	0.0	3.361364e-01	3.350940e-05	0.0	3.352778e-01	-1.730286e-04	0.0	3.344121e-01	-3.452022e-04	0.0	3.335416e-01	-4.895788e-04	0.0	3.326712e-01	-6.311072e-04	0.0	3.318010e-01	-7.718520e-04	0.0	3.204255e-01	-1.250547e-03	0.0	3.309276e-01	-8.860647e-04	0.0	3.300515e-01	-9.725823e-04	0.0	3.291748e-01	-1.047109e-03	0.0	3.282993e-01	-1.128879e-03	0.0	3.274245e-01	-1.210247e-03	0.0	3.265490e-01	-1.276510e-03	0.0	3.212979e-01	-1.271940e-03	0.0	3.221712e-01	-1.293108e-03	0.0	3.230453e-01	-1.314082e-03	0.0	3.239203e-01	-1.328909e-03	0.0	3.247961e-01	-1.331615e-03	0.0	3.256726e-01	-1.316176e-03	0.0	3.083361e-01	-3.913094e-03	0.0	3.484891e-01	4.795396e-03	0.0	3.500443e-01	5.641354e-03	0.0	3.505637e-01	5.940783e-03	0.0	3.510818e-01	6.242514e-03	0.0	3.516005e-01	6.543308e-03	0.0	3.521204e-01	6.842176e-03	0.0	3.526394e-01	7.142492e-03	0.0	3.531554e-01	7.448047e-03	0.0	3.536673e-01	7.760462e-03	0.0	3.541757e-01	8.078652e-03	0.0	3.546812e-01	8.401356e-03	0.0	3.551850e-01	8.726799e-03	0.0	3.556884e-01	9.052778e-03	0.0	3.561926e-01	9.377406e-03	0.0	3.566970e-01	9.701935e-03	0.0	3.571994e-01	1.002937e-02	0.0	3.576988e-01	1.036143e-02	0.0	3.581956e-01	1.069725e-02	0.0	3.586906e-01	1.103562e-02	0.0	3.591848e-01	1.137519e-02	0.0	3.596791e-01	1.171455e-02	0.0	3.601738e-01	1.205311e-02	0.0	3.606683e-01	1.239196e-02	0.0	3.611617e-01	1.273236e-02	0.0	3.616532e-01	1.307533e-02	0.0	3.621427e-01	1.342115e-02	0.0	3.626299e-01	1.376992e-02	0.0	3.631150e-01	1.412154e-02	0.0	3.635988e-01	1.447491e-02	0.0	3.640822e-01	1.482856e-02	0.0	3.645663e-01	1.518121e-02	0.0	3.650508e-01	1.553303e-02	0.0	3.655351e-01	1.588498e-02	0.0	3.660186e-01	1.623800e-02	0.0	3.665004e-01	1.659304e-02	0.0	3.669800e-01	1.695083e-02	0.0	3.674573e-01	1.731157e-02	0.0	3.679320e-01	1.767539e-02	0.0	3.684042e-01	1.804240e-02	0.0	3.688736e-01	1.841269e-02	0.0	3.693407e-01	1.878566e-02	0.0	3.698063e-01	1.916020e-02	0.0	3.702714e-01	1.953521e-02	0.0	3.707369e-01	1.990957e-02	0.0	3.712032e-01	2.028254e-02	0.0	3.716699e-01	2.065485e-02	0.0	3.721360e-01	2.102757e-02	0.0	3.726007e-01	2.140178e-02	0.0	3.730631e-01	2.177851e-02	0.0	3.735228e-01	2.215833e-02	0.0	3.739796e-01	2.254132e-02	0.0	3.744334e-01	2.292759e-02	0.0	3.748840e-01	2.331720e-02	0.0	3.753316e-01	2.371001e-02	0.0	3.757771e-01	2.410498e-02	0.0	3.762213e-01	2.450094e-02	0.0	3.766655e-01	2.489671e-02	0.0	3.771105e-01	2.529122e-02	0.0	3.775554e-01	2.568542e-02	0.0	3.779981e-01	2.608187e-02	0.0	3.784375e-01	2.648149e-02	0.0	3.788740e-01	2.688399e-02	0.0	3.793093e-01	2.728748e-02	0.0	3.797452e-01	2.768994e-02	0.0	3.801809e-01	2.809223e-02	0.0	3.806148e-01	2.849608e-02	0.0	3.810456e-01	2.890280e-02	0.0	3.814733e-01	2.931248e-02	0.0	3.818978e-01	2.972501e-02	0.0	3.823199e-01	3.013972e-02	0.0	3.827409e-01	3.055504e-02	0.0	3.831625e-01	3.096943e-02	0.0	3.835847e-01	3.138273e-02	0.0	3.840066e-01	3.179598e-02	0.0	3.844271e-01	3.221022e-02	0.0	3.848451e-01	3.262651e-02	0.0	3.852599e-01	3.304552e-02	0.0	3.856716e-01	3.346721e-02	0.0	3.860802e-01	3.389150e-02	0.0	3.864856e-01	3.431827e-02	0.0	3.868883e-01	3.474732e-02	0.0	3.872888e-01	3.517786e-02	0.0	3.876882e-01	3.560898e-02	0.0	3.880875e-01	3.603977e-02	0.0	3.884875e-01	3.646937e-02	0.0	3.888881e-01	3.689801e-02	0.0	3.892881e-01	3.732663e-02	0.0	3.896867e-01	3.775620e-02	0.0	3.900826e-01	3.818768e-02	0.0	3.904754e-01	3.862152e-02	0.0	3.908652e-01	3.905758e-02	0.0	3.912521e-01	3.949567e-02	0.0	3.916363e-01	3.993562e-02	0.0	3.920181e-01	4.037717e-02	0.0	3.923980e-01	4.081987e-02	0.0	3.927765e-01	4.126324e-02	0.0	3.931543e-01	4.170701e-02	0.0	3.935849e-01	4.208953e-02	0.0	3.941278e-01	4.229537e-02	0.0	3.947040e-01	4.232142e-02	0.0	3.952414e-01	4.210361e-02	0.0	3.957366e-01	4.165683e-02	0.0	3.960041e-01	4.105694e-02	0.0	3.960432e-01	4.038936e-02	0.0	3.957582e-01	3.978330e-02	0.0	3.954517e-01	3.918439e-02	0.0	3.951172e-01	3.860033e-02	0.0	3.947718e-01	3.802233e-02	0.0	3.944288e-01	3.744266e-02	0.0	3.940753e-01	3.686905e-02	0.0	3.937058e-01	3.630534e-02	0.0	3.933294e-01	3.574593e-02	0.0	3.929527e-01	3.518647e-02	0.0	3.925764e-01	3.462648e-02	0.0	3.921933e-01	3.407094e-02	0.0	3.918060e-01	3.351797e-02	0.0	3.914216e-01	3.296284e-02	0.0	3.910376e-01	3.240710e-02	0.0	3.906531e-01	3.185160e-02	0.0	3.902689e-01	3.129564e-02	0.0	3.898861e-01	3.073847e-02	0.0	3.895048e-01	3.018008e-02	0.0	3.891242e-01	2.962103e-02	0.0	3.887436e-01	2.906182e-02	0.0	3.883628e-01	2.850254e-02	0.0	3.879818e-01	2.794325e-02	0.0	3.876008e-01	2.738379e-02	0.0	3.872202e-01	2.682392e-02	0.0	3.868400e-01	2.626362e-02	0.0	3.864595e-01	2.570334e-02	0.0	3.860783e-01	2.514349e-02	0.0	3.856963e-01	2.458394e-02	0.0	3.853143e-01	2.402435e-02	0.0	3.849324e-01	2.346457e-02	0.0	3.845505e-01	2.290465e-02	0.0	3.841687e-01	2.234461e-02	0.0	3.837868e-01	2.178450e-02	0.0	3.834044e-01	2.122460e-02	0.0	3.830209e-01	2.066543e-02	0.0	3.826354e-01	2.010755e-02	0.0	3.822472e-01	1.955150e-02	0.0	3.818563e-01	1.899729e-02	0.0	3.814637e-01	1.844420e-02	0.0	3.810706e-01	1.789143e-02	0.0	3.806781e-01	1.733822e-02	0.0	3.802864e-01	1.678436e-02	0.0	3.798946e-01	1.623061e-02	0.0	3.795014e-01	1.567777e-02	0.0	3.791060e-01	1.512656e-02	0.0	3.787075e-01	1.457756e-02	0.0	3.783051e-01	1.403133e-02	0.0	3.778993e-01	1.348775e-02	0.0	3.774917e-01	1.294545e-02	0.0	3.770845e-01	1.240292e-02	0.0	3.766786e-01	1.185945e-02	0.0	3.762731e-01	1.131572e-02	0.0	3.758669e-01	1.077254e-02	0.0	3.754589e-01	1.023076e-02	0.0	3.750481e-01	9.691202e-03	0.0	3.746336e-01	9.154567e-03	0.0	3.742145e-01	8.621531e-03	0.0	3.737901e-01	8.092786e-03	0.0	3.733598e-01	7.569026e-03	0.0	3.729239e-01	7.049953e-03	0.0	3.724845e-01	6.533896e-03	0.0	3.720439e-01	6.019046e-03	0.0	3.716041e-01	5.503582e-03	0.0	3.711665e-01	4.986414e-03	0.0	3.707284e-01	4.469844e-03	0.0	3.702861e-01	3.956989e-03	0.0	3.698379e-01	3.449392e-03	0.0	3.693834e-01	2.947656e-03	0.0	3.689248e-01	2.449865e-03	0.0	3.684664e-01	1.951943e-03	0.0	3.680095e-01	1.452949e-03	0.0	3.675499e-01	9.565835e-04	0.0	3.670845e-01	4.659658e-04	0.0	3.666122e-01	-1.784669e-05	0.0	3.661336e-01	-4.952477e-04	0.0	3.656532e-01	-9.705890e-04	0.0	3.651745e-01	-1.447378e-03	0.0	3.646928e-01	-1.920808e-03	0.0	3.642040e-01	-2.386786e-03	0.0	3.637098e-01	-2.846603e-03	0.0	3.632161e-01	-3.306775e-03	0.0	3.627206e-01	-3.764582e-03	0.0	3.622181e-01	-4.214493e-03	0.0	3.617094e-01	-4.657001e-03	0.0	3.612008e-01	-5.099338e-03	0.0	3.606927e-01	-5.541840e-03	0.0	3.601798e-01	-5.978494e-03	0.0	3.596596e-01	-6.406048e-03	0.0	3.591319e-01	-6.823864e-03	0.0	3.585997e-01	-7.235503e-03	0.0	3.580685e-01	-7.647979e-03	0.0	3.575381e-01	-8.061233e-03	0.0	3.570034e-01	-8.468280e-03	0.0	3.564613e-01	-8.865139e-03	0.0	3.558462e-01	-9.296533e-03	0.0	3.552260e-01	-9.720815e-03	0.0	3.546077e-01	-1.014782e-02	0.0	3.539899e-01	-1.057572e-02	0.0	3.533677e-01	-1.099729e-02	0.0	3.527373e-01	-1.140643e-02	0.0	3.520973e-01	-1.180049e-02	0.0	3.514471e-01	-1.217751e-02	0.0	3.507891e-01	-1.254059e-02	0.0	3.501287e-01	-1.289942e-02	0.0	3.494709e-01	-1.326294e-02	0.0	3.488141e-01	-1.362821e-02	0.0	3.481530e-01	-1.398570e-02	0.0	3.474837e-01	-1.432725e-02	0.0	3.468049e-01	-1.464935e-02	0.0	3.461162e-01	-1.494947e-02	0.0	3.454202e-01	-1.523238e-02	0.0	3.447227e-01	-1.551103e-02	0.0	3.440278e-01	-1.579619e-02	0.0	3.433332e-01	-1.608136e-02	0.0	3.426333e-01	-1.635326e-02	0.0	3.419253e-01	-1.660284e-02	0.0	3.412089e-01	-1.682658e-02	0.0	3.404850e-01	-1.702427e-02	0.0	3.397580e-01	-1.720959e-02	0.0	3.390323e-01	-1.739950e-02	0.0	3.383080e-01	-1.759389e-02	0.0	3.375808e-01	-1.777635e-02	0.0	3.368479e-01	-1.793316e-02	0.0	3.361094e-01	-1.805972e-02	0.0	3.353663e-01	-1.815450e-02	0.0	3.346213e-01	-1.823091e-02	0.0	3.338768e-01	-1.830991e-02	0.0	3.331331e-01	-1.839468e-02	0.0	3.323881e-01	-1.846271e-02	0.0	3.316411e-01	-1.849889e-02	0.0	3.308935e-01	-1.850123e-02	0.0	3.301464e-01	-1.848006e-02	0.0	3.293995e-01	-1.846009e-02	0.0	3.286529e-01	-1.844482e-02	0.0	3.279072e-01	-1.841066e-02	0.0	3.271642e-01	-1.834286e-02	0.0	3.264256e-01	-1.823925e-02	0.0	3.256910e-01	-1.811200e-02	0.0	3.249563e-01	-1.798743e-02	0.0	3.242212e-01	-1.786757e-02	0.0	3.234899e-01	-1.772845e-02	0.0	3.227665e-01	-1.755449e-02	0.0	3.220536e-01	-1.734303e-02	0.0	3.213504e-01	-1.710210e-02	0.0	3.206490e-01	-1.685733e-02	0.0	3.199448e-01	-1.662183e-02	0.0	3.192454e-01	-1.637375e-02	0.0	3.185593e-01	-1.609226e-02	0.0	3.178902e-01	-1.577352e-02	0.0	3.172381e-01	-1.542217e-02	0.0	3.165914e-01	-1.506178e-02	0.0	3.159437e-01	-1.470419e-02	0.0	3.153142e-01	-1.431650e-02	0.0	3.146902e-01	-1.392078e-02	0.0	3.140682e-01	-1.352281e-02	0.0	3.134652e-01	-1.309771e-02	0.0	3.128945e-01	-1.263095e-02	0.0	3.123623e-01	-1.212149e-02	0.0	3.118408e-01	-1.160155e-02	0.0	3.113118e-01	-1.109011e-02	0.0	3.108081e-01	-1.055470e-02	0.0	3.103577e-01	-9.974589e-03	0.0	3.099574e-01	-9.359202e-03	0.0	3.095563e-01	-8.745006e-03	0.0	3.091991e-01	-8.105295e-03	0.0	3.088775e-01	-7.447271e-03	0.0	3.085931e-01	-6.773398e-03	0.0	3.083583e-01	-6.080923e-03	0.0	3.082394e-01	-5.362770e-03	0.0	3.082284e-01	-4.634417e-03	0.0	
CELLS 324	972
2	51	52	2	52	53	2	53	54	2	54	55	2	55	56	2	56	57	2	57	58	2	58	59	2	59	60	2	60	61	2	61	62	2	62	63	2	63	64	2	64	65	2	65	66	2	66	67	2	67	68	2	68	69	2	69	70	2	70	71	2	71	72	2	72	73	2	73	74	2	74	75	2	75	76	2	76	77	2	77	78	2	78	79	2	79	80	2	80	81	2	81	82	2	82	83	2	83	84	2	84	85	2	85	86	2	86	87	2	87	88	2	88	89	2	89	90	2	90	91	2	91	92	2	92	93	2	93	94	2	94	95	2	95	96	2	96	97	2	97	98	2	98	99	2	99	100	2	100	101	2	101	102	2	102	103	2	103	104	2	104	105	2	105	106	2	106	107	2	107	108	2	108	109	2	109	110	2	110	111	2	111	112	2	112	113	2	113	114	2	114	115	2	115	116	2	116	117	2	117	118	2	118	119	2	119	120	2	120	121	2	121	122	2	122	123	2	123	124	2	124	125	2	125	126	2	126	127	2	127	128	2	128	129	2	129	130	2	130	131	2	131	132	2	132	133	2	133	134	2	134	135	2	135	136	2	136	137	2	137	138	2	138	139	2	139	140	2	140	141	2	141	142	2	142	143	2	143	144	2	144	145	2	145	146	2	146	147	2	147	148	2	148	149	2	149	150	2	150	151	2	151	152	2	152	153	2	153	154	2	154	155	2	155	156	2	156	157	2	157	158	2	158	159	2	159	160	2	160	161	2	161	162	2	162	163	2	163	164	2	164	165	2	165	166	2	166	167	2	167	168	2	168	169	2	169	170	2	170	171	2	171	172	2	172	173	2	173	174	2	174	175	2	175	176	2	176	177	2	177	178	2	178	179	2	179	180	2	180	181	2	181	182	2	182	183	2	183	184	2	184	185	2	185	186	2	186	187	2	187	188	2	188	189	2	189	190	2	190	191	2	191	192	2	192	193	2	193	194	2	194	195	2	195	196	2	196	197	2	197	198	2	198	199	2	199	200	2	200	201	2	201	202	2	202	203	2	203	204	2	204	205	2	205	206	2	206	207	2	207	208	2	208	209	2	209	210	2	210	211	2	211	212	2	212	213	2	213	214	2	214	215	2	215	216	2	216	217	2	217	218	2	218	219	2	219	220	2	220	221	2	221	222	2	222	223	2	223	224	2	224	225	2	225	226	2	226	227	2	227	228	2	228	229	2	229	230	2	230	231	2	231	232	2	232	233	2	233	234	2	234	235	2	235	236	2	236	237	2	237	238	2	238	239	2	239	240	2	240	241	2	241	242	2	242	243	2	243	244	2	244	245	2	245	246	2	246	247	2	247	248	2	248	249	2	249	250	2	250	251	2	251	252	2	252	253	2	253	254	2	254	255	2	255	256	2	256	257	2	257	258	2	258	259	2	259	260	2	260	261	2	261	262	2	262	263	2	263	264	2	264	265	2	265	266	2	266	267	2	267	268	2	268	269	2	269	270	2	270	271	2	271	272	2	272	273	2	273	274	2	274	275	2	275	276	2	276	277	2	277	278	2	278	279	2	279	280	2	280	281	2	281	282	2	282	283	2	283	284	2	284	285	2	285	286	2	286	287	2	287	288	2	288	289	2	289	290	2	290	291	2	291	292	2	292	293	2	293	294	2	294	295	2	295	296	2	296	297	2	297	298	2	298	299	2	299	300	2	300	301	2	301	302	2	302	303	2	303	304	2	304	305	2	305	306	2	306	307	2	307	308	2	308	309	2	309	310	2	310	311	2	311	312	2	312	313	2	313	314	2	314	315	2	315	316	2	316	317	2	317	318	2	318	319	2	319	320	2	320	321	2	321	322	2	322	323	2	323	49	2	49	0	2	0	1	2	1	3	2	3	5	2	5	6	2	6	7	2	7	8	2	8	9	2	9	10	2	10	11	2	11	13	2	13	17	2	17	19	2	19	22	2	22	28	2	28	36	2	36	43	2	43	44	2	44	45	2	45	46	2	46	47	2	47	48	2	48	42	2	42	41	2	41	40	2	40	39	2	39	38	2	38	37	2	37	35	2	35	34	2	34	33	2	33	32	2	32	31	2	31	30	2	30	29	2	29	27	2	27	26	2	26	25	2	25	24	2	24	23	2	23	21	2	21	20	2	20	18	2	18	16	2	16	15	2	15	14	2	14	12	2	12	4	2	4	50	2	50	2	2	2	51	
CELL_TYPES 324
3	3	3	3	3	3	3	3	3	3	3	3	3	3	3	3	3	3	3	3	3	3	3	3	3	3	3	3	3	3	3	3	3	3	3	3	3	3	3	3	3	3	3	3	3	3	3	3	3	3	3	3	3	3	3	3	3	3	3	3	3	3	3	3	3	3	3	3	3	3	3	3	3	3	3	3	3	3	3	3	3	3	3	3	3	3	3	3	3	3	3	3	3	3	3	3	3	3	3	3	3	3	3	3	3	3	3	3	3	3	3	3	3	3	3	3	3	3	3	3	3	3	3	3	3	3	3	3	3	3	3	3	3	3	3	3	3	3	3	3	3	3	3	3	3	3	3	3	3	3	3	3	3	3	3	3	3	3	3	3	3	3	3	3	3	3	3	3	3	3	3	3	3	3	3	3	3	3	3	3	3	3	3	3	3	3	3	3	3	3	3	3	3	3	3	3	3	3	3	3	3	3	3	3	3	3	3	3	3	3	3	3	3	3	3	3	3	3	3	3	3	3	3	3	3	3	3	3	3	3	3	3	3	3	3	3	3	3	3	3	3	3	3	3	3	3	3	3	3	3	3	3	3	3	3	3	3	3	3	3	3	3	3	3	3	3	3	3	3	3	3	3	3	3	3	3	3	3	3	3	3	3	3	3	3	3	3	3	3	3	3	3	3	3	3	3	3	3	3	3	3	3	3	3	3	3	3	3	3	3	3	3	3	3	3	3	3	3	3	3	3	3	3	3	
POINT_DATA 324

SCALARS Density float 1
LOOKUP_TABLE default
1.562077e+00	1.654566e+00	1.653117e+00	1.664308e+00	1.660101e+00	1.719153e+00	1.665582e+00	1.596992e+00	1.690653e+00	1.705795e+00	1.710225e+00	1.718090e+00	1.661330e+00	1.713951e+00	1.664323e+00	1.669534e+00	1.671999e+00	1.712275e+00	1.673585e+00	1.710209e+00	1.676339e+00	1.681766e+00	1.720165e+00	1.686895e+00	1.683336e+00	1.687239e+00	1.691304e+00	1.699965e+00	1.720177e+00	1.695576e+00	1.694453e+00	1.698153e+00	1.702801e+00	1.705294e+00	1.703065e+00	1.703163e+00	1.723232e+00	1.709594e+00	1.729163e+00	1.712487e+00	1.703374e+00	1.709480e+00	1.708875e+00	1.724628e+00	1.724924e+00	1.726801e+00	1.723053e+00	1.726355e+00	1.714865e+00	1.413686e+00	1.657520e+00	1.648512e+00	1.645342e+00	1.637954e+00	1.639856e+00	1.638629e+00	1.635600e+00	1.633161e+00	1.626732e+00	1.622485e+00	1.617654e+00	1.613366e+00	1.608753e+00	1.612363e+00	1.609813e+00	1.602719e+00	1.598188e+00	1.593619e+00	1.589314e+00	1.584500e+00	1.581290e+00	1.578485e+00	1.575749e+00	1.572942e+00	1.569614e+00	1.565787e+00	1.561748e+00	1.557305e+00	1.552737e+00	1.548587e+00	1.546286e+00	1.544208e+00	1.542230e+00	1.539991e+00	1.537840e+00	1.534993e+00	1.531849e+00	1.528153e+00	1.523907e+00	1.519055e+00	1.514655e+00	1.509655e+00	1.505060e+00	1.502459e+00	1.500395e+00	1.499373e+00	1.497994e+00	1.496211e+00	1.494140e+00	1.491294e+00	1.487980e+00	1.484016e+00	1.479366e+00	1.474484e+00	1.469813e+00	1.464454e+00	1.461113e+00	1.459660e+00	1.458307e+00	1.454538e+00	1.450398e+00	1.445894e+00	1.441667e+00	1.440133e+00	1.438935e+00	1.436410e+00	1.432653e+00	1.428224e+00	1.423242e+00	1.418264e+00	1.412673e+00	1.410380e+00	1.408927e+00	1.407805e+00	1.405794e+00	1.403588e+00	1.400025e+00	1.395901e+00	1.391004e+00	1.385210e+00	1.379252e+00	1.372758e+00	1.365806e+00	1.360345e+00	1.356807e+00	1.353986e+00	1.351083e+00	1.347203e+00	1.341891e+00	1.335098e+00	1.327402e+00	1.317565e+00	1.305845e+00	1.287663e+00	1.268114e+00	1.229303e+00	1.173967e+00	4.762188e-01	5.605384e+00	5.285893e-01	1.052335e+00	1.371497e+00	1.307032e+00	1.232142e+00	1.253689e+00	1.260244e+00	1.260631e+00	1.258818e+00	1.253679e+00	1.252369e+00	1.253934e+00	1.256927e+00	1.256687e+00	1.256450e+00	1.259258e+00	1.261279e+00	1.261082e+00	1.262029e+00	1.262630e+00	1.262740e+00	1.262343e+00	1.261616e+00	1.260535e+00	1.259533e+00	1.258539e+00	1.257494e+00	1.256272e+00	1.254743e+00	1.253042e+00	1.251321e+00	1.249677e+00	1.248086e+00	1.246286e+00	1.244222e+00	1.241948e+00	1.239402e+00	1.236623e+00	1.233727e+00	1.230704e+00	1.227915e+00	1.225675e+00	1.224034e+00	1.222503e+00	1.220542e+00	1.217639e+00	1.214220e+00	1.210639e+00	1.206797e+00	1.203037e+00	1.199853e+00	1.197669e+00	1.196411e+00	1.194708e+00	1.191932e+00	1.187883e+00	1.183262e+00	1.178237e+00	1.172738e+00	1.167272e+00	1.162303e+00	1.157898e+00	1.154736e+00	1.153716e+00	1.153956e+00	1.154740e+00	1.154255e+00	1.151254e+00	1.146529e+00	1.140876e+00	1.136129e+00	1.133693e+00	1.134411e+00	1.134569e+00	1.130990e+00	1.126146e+00	1.121001e+00	1.117917e+00	1.118498e+00	1.121205e+00	1.120252e+00	1.116109e+00	1.113561e+00	1.114773e+00	1.116219e+00	1.113686e+00	1.111139e+00	1.112999e+00	1.115864e+00	1.114047e+00	1.110872e+00	1.109211e+00	1.111550e+00	1.116872e+00	1.121373e+00	1.119635e+00	1.116438e+00	1.116318e+00	1.119151e+00	1.127299e+00	1.130865e+00	1.128734e+00	1.124233e+00	1.120348e+00	1.119415e+00	1.124593e+00	1.132972e+00	1.141201e+00	1.145878e+00	1.142739e+00	1.136758e+00	1.133458e+00	1.131762e+00	1.137493e+00	1.145087e+00	1.152310e+00	1.156070e+00	1.150419e+00	1.145455e+00	1.143133e+00	1.143834e+00	1.146878e+00	1.155005e+00	1.157861e+00	1.152157e+00	1.145649e+00	1.141657e+00	1.140080e+00	1.140472e+00	1.144568e+00	1.146659e+00	1.139697e+00	1.131976e+00	1.127294e+00	1.124278e+00	1.125352e+00	1.121110e+00	1.113523e+00	1.102707e+00	1.094652e+00	1.089622e+00	1.082882e+00	1.075685e+00	1.061915e+00	1.047029e+00	1.035031e+00	1.025345e+00	1.013324e+00	1.001513e+00	9.817343e-01	9.584929e-01	9.400770e-01	9.207564e-01	8.995108e-01	8.850072e-01	8.541532e-01	8.299092e-01	8.132967e-01	7.802311e-01	6.258406e-01	6.650724e-01	6.546506e-01	6.631731e-01	6.533877e-01	6.462487e-01	7.250838e-01	8.293733e-01	8.404788e-01	8.457545e-01	8.823075e-01	8.920410e-01	8.883815e-01	9.488988e-01	1.108638e+00	1.263908e+00	
SCALARS X-Momentum float 1
LOOKUP_TABLE default
0.000000e+00	0.000000e+00	0.000000e+00	0.000000e+00	0.000000e+00	0.000000e+00	0.000000e+00	0.000000e+00	0.000000e+00	0.000000e+00	0.000000e+00	0.000000e+00	0.000000e+00	0.000000e+00	0.000000e+00	0.000000e+00	0.000000e+00	0.000000e+00	0.000000e+00	0.000000e+00	0.000000e+00	0.000000e+00	0.000000e+00	0.000000e+00	0.000000e+00	0.000000e+00	0.000000e+00	0.000000e+00	0.000000e+00	0.000000e+00	0.000000e+00	0.000000e+00	0.000000e+00	0.000000e+00	0.000000e+00	0.000000e+00	0.000000e+00	0.000000e+00	0.000000e+00	0.000000e+00	0.000000e+00	0.000000e+00	0.000000e+00	0.000000e+00	0.000000e+00	0.000000e+00	0.000000e+00	0.000000e+00	0.000000e+00	0.000000e+00	0.000000e+00	0.000000e+00	0.000000e+00	0.000000e+00	0.000000e+00	0.000000e+00	0.000000e+00	0.000000e+00	0.000000e+00	0.000000e+00	0.000000e+00	0.000000e+00	0.000000e+00	0.000000e+00	0.000000e+00	0.000000e+00	0.000000e+00	0.000000e+00	0.000000e+00	0.000000e+00	0.000000e+00	0.000000e+00	0.000000e+00	0.000000e+00	0.000000e+00	0.000000e+00	0.000000e+00	0.000000e+00	0.000000e+00	0.000000e+00	0.000000e+00	0.000000e+00	0.000000e+00	0.000000e+00	0.000000e+00	0.000000e+00	0.000000e+00	0.000000e+00	0.000000e+00	0.000000e+00	0.000000e+00	0.000000e+00	0.000000e+00	0.000000e+00	0.000000e+00	0.000000e+00	0.000000e+00	0.000000e+00	0.000000e+00	0.000000e+00	0.000000e+00	0.000000e+00	0.000000e+00	0.000000e+00	0.000000e+00	0.000000e+00	0.000000e+00	0.000000e+00	0.000000e+00	0.000000e+00	0.000000e+00	0.000000e+00	0.000000e+00	0.000000e+00	0.000000e+00	0.000000e+00	0.000000e+00	0.000000e+00	0.000000e+00	0.000000e+00	0.000000e+00	0.000000e+00	0.000000e+00	0.000000e+00	0.000000e+00	0.000000e+00	0.000000e+00	0.000000e+00	0.000000e+00	0.000000e+00	0.000000e+00	0.000000e+00	0.000000e+00	0.000000e+00	0.000000e+00	0.000000e+00	0.000000e+00	0.000000e+00	0.000000e+00	0.000000e+00	0.000000e+00	0.000000e+00	0.000000e+00	0.000000e+00	0.000000e+00	0.000000e+00	0.000000e+00	0.000000e+00	0.000000e+00	0.000000e+00	0.000000e+00	0.000000e+00	0.000000e+00	0.000000e+00	0.000000e+00	0.000000e+00	0.000000e+00	0.000000e+00	0.000000e+00	0.000000e+00	0.000000e+00	0.000000e+00	0.000000e+00	0.000000e+00	0.000000e+00	0.000000e+00	0.000000e+00	0.000000e+00	0.000000e+00	0.000000e+00	0.000000e+00	0.000000e+00	0.000000e+00	0.000000e+00	0.000000e+00	0.000000e+00	0.000000e+00	0.000000e+00	0.000000e+00	0.000000e+00	0.000000e+00	0.000000e+00	0.000000e+00	0.000000e+00	0.000000e+00	0.000000e+00	0.000000e+00	0.000000e+00	0.000000e+00	0.000000e+00	0.000000e+00	0.000000e+00	0.000000e+00	0.000000e+00	0.000000e+00	0.000000e+00	0.000000e+00	0.000000e+00	0.000000e+00	0.000000e+00	0.000000e+00	0.000000e+00	0.000000e+00	0.000000e+00	0.000000e+00	0.000000e+00	0.000000e+00	0.000000e+00	0.000000e+00	0.000000e+00	0.000000e+00	0.000000e+00	0.000000e+00	0.000000e+00	0.000000e+00	0.000000e+00	0.000000e+00	0.000000e+00	0.000000e+00	0.000000e+00	0.000000e+00	0.000000e+00	0.000000e+00	0.000000e+00	0.000000e+00	0.000000e+00	0.000000e+00	0.000000e+00	0.000000e+00	0.000000e+00	0.000000e+00	0.000000e+00	0.000000e+00	0.000000e+00	0.000000e+00	0.000000e+00	0.000000e+00	0.000000e+00	0.000000e+00	0.000000e+00	0.000000e+00	0.000000e+00	0.000000e+00	0.000000e+00	0.000000e+00	0.000000e+00	0.000000e+00	0.000000e+00	0.000000e+00	0.000000e+00	0.000000e+00	0.000000e+00	0.000000e+00	0.000000e+00	0.000000e+00	0.000000e+00	0.000000e+00	0.000000e+00	0.000000e+00	0.000000e+00	0.000000e+00	0.000000e+00	0.000000e+00	0.000000e+00	0.000000e+00	0.000000e+00	0.000000e+00	0.000000e+00	0.000000e+00	0.000000e+00	0.000000e+00	0.000000e+00	0.000000e+00	0.000000e+00	0.000000e+00	0.000000e+00	0.000000e+00	0.000000e+00	0.000000e+00	0.000000e+00	0.000000e+00	0.000000e+00	0.000000e+00	0.000000e+00	0.000000e+00	0.000000e+00	0.000000e+00	0.000000e+00	0.000000e+00	0.000000e+00	0.000000e+00	0.000000e+00	0.000000e+00	0.000000e+00	0.000000e+00	0.000000e+00	0.000000e+00	0.000000e+00	0.000000e+00	0.000000e+00	0.000000e+00	0.000000e+00	0.000000e+00	0.000000e+00	0.000000e+00	0.000000e+00	0.000000e+00	0.000000e+00	0.000000e+00	0.000000e+00	0.000000e+00	0.000000e+00	0.000000e+00	0.000000e+00	0.000000e+00	0.000000e+00	0.000000e+00	0.000000e+00	0.000000e+00	0.000000e+00	0.000000e+00	0.000000e+00	0.000000e+00	0.000000e+00	
SCALARS Y-Momentum float 1
LOOKUP_TABLE default
4.649755e+02	4.925064e+02	4.920750e+02	4.954062e+02	4.941540e+02	5.117316e+02	4.957855e+02	4.753687e+02	5.032483e+02	5.077554e+02	5.090742e+02	5.114151e+02	4.945197e+02	5.101832e+02	4.954108e+02	4.969619e+02	4.976954e+02	5.096842e+02	4.981678e+02	5.090694e+02	4.989875e+02	5.006029e+02	5.120328e+02	5.021296e+02	5.010703e+02	5.022321e+02	5.034419e+02	5.060201e+02	5.120365e+02	5.047137e+02	5.043794e+02	5.054806e+02	5.068642e+02	5.076064e+02	5.069429e+02	5.069720e+02	5.129460e+02	5.088862e+02	5.147114e+02	5.097474e+02	5.070347e+02	5.088522e+02	5.086722e+02	5.133614e+02	5.134494e+02	5.140083e+02	5.128927e+02	5.138756e+02	5.104552e+02	4.208049e+02	4.933858e+02	4.907043e+02	4.897608e+02	4.875616e+02	4.881277e+02	4.877624e+02	4.868609e+02	4.861349e+02	4.842213e+02	4.829570e+02	4.815189e+02	4.802426e+02	4.788696e+02	4.799439e+02	4.791851e+02	4.770733e+02	4.757247e+02	4.743646e+02	4.730832e+02	4.716502e+02	4.706947e+02	4.698598e+02	4.690453e+02	4.682098e+02	4.672192e+02	4.660799e+02	4.648778e+02	4.635551e+02	4.621955e+02	4.609603e+02	4.602753e+02	4.596567e+02	4.590678e+02	4.584015e+02	4.577612e+02	4.569138e+02	4.559777e+02	4.548777e+02	4.536139e+02	4.521695e+02	4.508597e+02	4.493715e+02	4.480037e+02	4.472294e+02	4.466151e+02	4.463110e+02	4.459005e+02	4.453697e+02	4.447532e+02	4.439062e+02	4.429195e+02	4.417395e+02	4.403555e+02	4.389022e+02	4.375119e+02	4.359168e+02	4.349222e+02	4.344898e+02	4.340869e+02	4.329650e+02	4.317328e+02	4.303920e+02	4.291337e+02	4.286773e+02	4.283205e+02	4.275690e+02	4.264505e+02	4.251322e+02	4.236492e+02	4.221674e+02	4.205033e+02	4.198209e+02	4.193884e+02	4.190542e+02	4.184558e+02	4.177990e+02	4.167385e+02	4.155110e+02	4.140532e+02	4.123285e+02	4.105551e+02	4.086220e+02	4.065528e+02	4.049272e+02	4.038738e+02	4.030342e+02	4.021702e+02	4.010152e+02	3.994341e+02	3.974120e+02	3.951212e+02	3.921931e+02	3.887043e+02	3.832923e+02	3.774732e+02	3.659205e+02	3.494488e+02	1.417537e+02	1.668527e+03	1.573425e+02	3.132434e+02	4.082466e+02	3.890577e+02	3.667656e+02	3.731794e+02	3.751305e+02	3.752456e+02	3.747060e+02	3.731765e+02	3.727864e+02	3.732521e+02	3.741431e+02	3.740717e+02	3.740012e+02	3.748371e+02	3.754387e+02	3.753800e+02	3.756619e+02	3.758409e+02	3.758734e+02	3.757552e+02	3.755389e+02	3.752171e+02	3.749190e+02	3.746231e+02	3.743118e+02	3.739481e+02	3.734930e+02	3.729868e+02	3.724744e+02	3.719850e+02	3.715114e+02	3.709756e+02	3.703615e+02	3.696844e+02	3.689267e+02	3.680995e+02	3.672375e+02	3.663374e+02	3.655073e+02	3.648407e+02	3.643520e+02	3.638963e+02	3.633126e+02	3.624487e+02	3.614308e+02	3.603649e+02	3.592213e+02	3.581020e+02	3.571541e+02	3.565042e+02	3.561296e+02	3.556229e+02	3.547965e+02	3.535911e+02	3.522156e+02	3.507200e+02	3.490830e+02	3.474560e+02	3.459771e+02	3.446658e+02	3.437246e+02	3.434208e+02	3.434924e+02	3.437256e+02	3.435812e+02	3.426879e+02	3.412816e+02	3.395989e+02	3.381858e+02	3.374608e+02	3.376745e+02	3.377215e+02	3.366561e+02	3.352141e+02	3.336827e+02	3.327647e+02	3.329376e+02	3.337436e+02	3.334597e+02	3.322265e+02	3.314680e+02	3.318289e+02	3.322592e+02	3.315052e+02	3.307471e+02	3.313008e+02	3.321537e+02	3.316128e+02	3.306679e+02	3.301733e+02	3.308695e+02	3.324538e+02	3.337934e+02	3.332762e+02	3.323245e+02	3.322888e+02	3.331322e+02	3.355575e+02	3.366189e+02	3.359846e+02	3.346449e+02	3.334882e+02	3.332106e+02	3.347518e+02	3.372460e+02	3.396956e+02	3.410877e+02	3.401534e+02	3.383729e+02	3.373908e+02	3.368859e+02	3.385918e+02	3.408522e+02	3.430023e+02	3.441215e+02	3.424394e+02	3.409618e+02	3.402708e+02	3.404794e+02	3.413853e+02	3.438045e+02	3.446547e+02	3.429569e+02	3.410196e+02	3.398312e+02	3.393618e+02	3.394786e+02	3.406979e+02	3.413204e+02	3.392481e+02	3.369496e+02	3.355558e+02	3.346582e+02	3.349778e+02	3.337153e+02	3.314568e+02	3.282374e+02	3.258395e+02	3.243424e+02	3.223360e+02	3.201939e+02	3.160951e+02	3.116639e+02	3.080924e+02	3.052094e+02	3.016311e+02	2.981154e+02	2.922280e+02	2.853098e+02	2.798280e+02	2.740769e+02	2.677529e+02	2.634357e+02	2.542515e+02	2.470349e+02	2.420899e+02	2.322475e+02	1.862908e+02	1.979688e+02	1.948666e+02	1.974034e+02	1.944907e+02	1.923656e+02	2.158321e+02	2.468754e+02	2.501811e+02	2.517515e+02	2.626321e+02	2.655294e+02	2.644401e+02	2.824540e+02	3.300026e+02	3.762213e+02	
SCALARS Energy float 1
LOOKUP_TABLE default