# vtk DataFile Version 3.0
vtk output
ASCII

DATASET UNSTRUCTURED_GRID
POINTS 720 float
0 0.00845121394485145 0.0  0 0.0146379319381173 0.0  0 0.018897488873082 0.0  0 0.0223598103746781 0.0  0 0.0253536418345543 0.0  0 0.0280295056780916 0.0  0 0.0304712852180782 0.0  0 0.0327314108636455 0.0  0 0.0348452477593154 0.0  0 0.0368379875358492 0.0  0 0.0387283276165481 0.0  0 0.0405305982469786 0.0  0 0.0422560697242572 0.0  0 0.0439137958143519 0.0  0 0.0455111799133784 0.0  0 0.047054367824796 0.0  0 0.0485485279454949 0.0  0 0.0499980559617852 0.0  0 0.0514067275192762 0.0  0 0.0527778141696339 0.0  -0.0014675379005968 0.00832282101525459 0.0  -0.00254185020586663 0.0144155488607229 0.0  -0.00328151450529178 0.0186103935546731 0.0  -0.00388274032454097 0.0220201146128658 0.0  -0.00440261370179041 0.0249684630457638 0.0  -0.00486727258190548 0.0276036745048843 0.0  -0.00529128314928855 0.0300083579270097 0.0  -0.00568374984893961 0.0322341471855461 0.0  -0.00605081377375781 0.0343158701490051 0.0  -0.0063968494045173 0.0362783357306714 0.0  -0.00672510351470143 0.0381399572979734 0.0  -0.00703806452533831 0.0399148473878475 0.0  -0.00733768950298402 0.041614105076273 0.0  -0.00762555061759988 0.0432466465821688 0.0  -0.00790293345542996 0.0448197628274285 0.0  -0.00817090522404527 0.0463395062469473 0.0  -0.00843036340614723 0.0478109667180532 0.0  -0.0086820713046532 0.0492384731467043 0.0  -0.00892668455354275 0.0506257438179692 0.0  -0.00916477125180082 0.051976000581293 0.0  -0.00289048540469398 0.00794154338065987 0.0  -0.00500646757946626 0.0137551566258152 0.0  -0.00646332185286673 0.017757830845419 0.0  -0.00764750554908217 0.0210113488112572 0.0  -0.00867145621408195 0.0238246301419796 0.0  -0.00958665554936852 0.0263391196499794 0.0  -0.0104217933376044 0.0286336418652908 0.0  -0.0111948018348354 0.0307574652564794 0.0  -0.0119177766328595 0.0327438221888854 0.0  -0.0125993337768403 0.0346163850520407 0.0  -0.0132458681621752 0.0363927236766494 0.0  -0.0138622810215067 0.0380863040887241 0.0  -0.0144524270234699 0.0397077169032993 0.0  -0.0150194027383988 0.0412654698774456 0.0  -0.015565740276894 0.0427665199278615 0.0  -0.0160935416275355 0.0442166422207067 0.0  -0.0166045744861684 0.0456206934604 0.0  -0.0171003422660546 0.0469828042409304 0.0  -0.0175821363140464 0.0483065225086157 0.0  -0.0180510755667137 0.0495949225164149 0.0  -0.00422560697242572 0.00731896596905865 0.0  -0.00731896596905865 0.0126768209172772 0.0  -0.00944874443654099 0.0163657054318228 0.0  -0.011179905187339 0.0193641638082741 0.0  -0.0126768209172772 0.021956897907176 0.0  -0.0140147528390458 0.0242742639727475 0.0  -0.0152356426090391 0.026388907084817 0.0  -0.0163657054318228 0.028346233309623 0.0  -0.0174226238796577 0.0301768697607299 0.0  -0.0184189937679246 0.0319026330303399 0.0  -0.019364163808274 0.0335397155620171 0.0  -0.0202652991234893 0.0351005277124645 0.0  -0.0211280348621286 0.0365948298452933 0.0  -0.0219568979071759 0.0380304627518315 0.0  -0.0227555899566892 0.0394138379611897 0.0  -0.023527183912398 0.0407502778952905 0.0  -0.0242742639727475 0.0420442585171373 0.0  -0.0249990279808926 0.043299586602742 0.0  -0.0257033637596381 0.0445195319571178 0.0  -0.026388907084817 0.0457069278271173 0.0  -0.00543233561056061 0.00647400548006307 0.0  -0.00940908128125667 0.0112133064199486 0.0  -0.0121470717018063 0.0144763163401272 0.0  -0.0143726090637836 0.0171286084867162 0.0  -0.0162970068316818 0.0194220164401892 0.0  -0.0180170189555158 0.0214718470680739 0.0  -0.0195865645894053 0.0233423587160022 0.0  -0.0210393453507107 0.0250737154075398 0.0  -0.0223980935161456 0.0266930084151276 0.0  -0.023679001953831 0.0282195356475234 0.0  -0.0248940891357981 0.0296676201619479 0.0  -0.0260525663663408 0.0310482395633857 0.0  -0.027161678052803 0.0323700274003153 0.0  -0.02822724384377 0.0336399192598457 0.0  -0.0292540225505345 0.0348635864724315 0.0  -0.0302459646194118 0.0360457369966614 0.0  -0.0312063922318848 0.0371903300542528 0.0  -0.0321381308806497 0.0383007329362772 0.0  -0.0330436075039228 0.039379837955073 0.0  -0.0339249250145793 0.0404301512646141 0.0  -0.00647400548006307 0.00543233561056061 0.0  -0.0112133064199486 0.00940908128125667 0.0  -0.0144763163401272 0.0121470717018063 0.0  -0.0171286084867162 0.0143726090637836 0.0  -0.0194220164401892 0.0162970068316818 0.0  -0.0214718470680739 0.0180170189555158 0.0  -0.0233423587160023 0.0195865645894053 0.0  -0.0250737154075398 0.0210393453507107 0.0  -0.0266930084151276 0.0223980935161456 0.0  -0.0282195356475234 0.023679001953831 0.0  -0.0296676201619479 0.0248940891357981 0.0  -0.0310482395633857 0.0260525663663408 0.0  -0.0323700274003153 0.027161678052803 0.0  -0.0336399192598457 0.02822724384377 0.0  -0.0348635864724315 0.0292540225505345 0.0  -0.0360457369966614 0.0302459646194118 0.0  -0.0371903300542528 0.0312063922318848 0.0  -0.0383007329362772 0.0321381308806497 0.0  -0.039379837955073 0.0330436075039228 0.0  -0.0404301512646141 0.0339249250145793 0.0  -0.00731896596905865 0.00422560697242572 0.0  -0.0126768209172772 0.00731896596905865 0.0  -0.0163657054318228 0.009448744436541 0.0  -0.019364163808274 0.011179905187339 0.0  -0.021956897907176 0.0126768209172772 0.0  -0.0242742639727475 0.0140147528390458 0.0  -0.026388907084817 0.0152356426090391 0.0  -0.028346233309623 0.0163657054318228 0.0  -0.0301768697607299 0.0174226238796577 0.0  -0.0319026330303399 0.0184189937679246 0.0  -0.0335397155620171 0.0193641638082741 0.0  -0.0351005277124645 0.0202652991234893 0.0  -0.0365948298452933 0.0211280348621286 0.0  -0.0380304627518315 0.021956897907176 0.0  -0.0394138379611897 0.0227555899566892 0.0  -0.0407502778952904 0.023527183912398 0.0  -0.0420442585171373 0.0242742639727475 0.0  -0.043299586602742 0.0249990279808926 0.0  -0.0445195319571178 0.0257033637596381 0.0  -0.0457069278271173 0.026388907084817 0.0  -0.00794154338065987 0.00289048540469398 0.0  -0.0137551566258152 0.00500646757946627 0.0  -0.017757830845419 0.00646332185286673 0.0  -0.0210113488112572 0.00764750554908217 0.0  -0.0238246301419796 0.00867145621408195 0.0  -0.0263391196499794 0.00958665554936852 0.0  -0.0286336418652908 0.0104217933376044 0.0  -0.0307574652564794 0.0111948018348354 0.0  -0.0327438221888854 0.0119177766328595 0.0  -0.0346163850520407 0.0125993337768403 0.0  -0.0363927236766493 0.0132458681621752 0.0  -0.0380863040887241 0.0138622810215067 0.0  -0.0397077169032993 0.0144524270234699 0.0  -0.0412654698774456 0.0150194027383988 0.0  -0.0427665199278615 0.015565740276894 0.0  -0.0442166422207067 0.0160935416275355 0.0  -0.0456206934604 0.0166045744861684 0.0  -0.0469828042409304 0.0171003422660546 0.0  -0.0483065225086157 0.0175821363140464 0.0  -0.0495949225164149 0.0180510755667137 0.0  -0.00832282101525459 0.0014675379005968 0.0  -0.0144155488607229 0.00254185020586663 0.0  -0.0186103935546731 0.00328151450529178 0.0  -0.0220201146128658 0.00388274032454097 0.0  -0.0249684630457638 0.00440261370179041 0.0  -0.0276036745048843 0.00486727258190548 0.0  -0.0300083579270097 0.00529128314928855 0.0  -0.0322341471855461 0.00568374984893962 0.0  -0.0343158701490051 0.00605081377375781 0.0  -0.0362783357306714 0.00639684940451731 0.0  -0.0381399572979734 0.00672510351470143 0.0  -0.0399148473878475 0.00703806452533832 0.0  -0.041614105076273 0.00733768950298402 0.0  -0.0432466465821688 0.00762555061759988 0.0  -0.0448197628274285 0.00790293345542996 0.0  -0.0463395062469473 0.00817090522404527 0.0  -0.0478109667180532 0.00843036340614724 0.0  -0.0492384731467043 0.0086820713046532 0.0  -0.0506257438179692 0.00892668455354275 0.0  -0.051976000581293 0.00916477125180083 0.0  -0.00845121394485145 5.1748760532359e-19 0.0  -0.0146379319381173 8.96314824707608e-19 0.0  -0.018897488873082 1.15713746301713e-18 0.0  -0.0223598103746781 1.36914351024456e-18 0.0  -0.0253536418345543 1.55246281597077e-18 0.0  -0.0280295056780916 1.71631222051787e-18 0.0  -0.0304712852180782 1.86582809541128e-18 0.0  -0.0327314108636455 2.00422087728702e-18 0.0  -0.0348452477593154 2.1336560566971e-18 0.0  -0.0368379875358492 2.25567617614039e-18 0.0  -0.0387283276165481 2.37142612259678e-18 0.0  -0.0405305982469786 2.48178337053448e-18 0.0  -0.0422560697242572 2.58743802661795e-18 0.0  -0.0439137958143519 2.68894447412282e-18 0.0  -0.0455111799133784 2.78675604031691e-18 0.0  -0.047054367824796 2.88124904712693e-18 0.0  -0.0485485279454949 2.97273996758831e-18 0.0  -0.0499980559617852 3.06149795985952e-18 0.0  -0.0514067275192762 3.14775421555609e-18 0.0  -0.0527778141696339 3.2317090594418e-18 0.0  -0.00832282101525459 -0.0014675379005968 0.0  -0.0144155488607229 -0.00254185020586663 0.0  -0.0186103935546731 -0.00328151450529178 0.0  -0.0220201146128658 -0.00388274032454097 0.0  -0.0249684630457638 -0.00440261370179041 0.0  -0.0276036745048843 -0.00486727258190547 0.0  -0.0300083579270097 -0.00529128314928855 0.0  -0.0322341471855461 -0.00568374984893961 0.0  -0.0343158701490051 -0.00605081377375781 0.0  -0.0362783357306714 -0.0063968494045173 0.0  -0.0381399572979734 -0.00672510351470143 0.0  -0.0399148473878475 -0.00703806452533831 0.0  -0.041614105076273 -0.00733768950298401 0.0  -0.0432466465821688 -0.00762555061759988 0.0  -0.0448197628274285 -0.00790293345542996 0.0  -0.0463395062469473 -0.00817090522404526 0.0  -0.0478109667180532 -0.00843036340614723 0.0  -0.0492384731467043 -0.0086820713046532 0.0  -0.0506257438179692 -0.00892668455354275 0.0  -0.051976000581293 -0.00916477125180082 0.0  -0.00794154338065987 -0.00289048540469398 0.0  -0.0137551566258152 -0.00500646757946626 0.0  -0.017757830845419 -0.00646332185286673 0.0  -0.0210113488112572 -0.00764750554908217 0.0  -0.0238246301419796 -0.00867145621408195 0.0  -0.0263391196499794 -0.00958665554936852 0.0  -0.0286336418652908 -0.0104217933376044 0.0  -0.0307574652564794 -0.0111948018348354 0.0  -0.0327438221888854 -0.0119177766328595 0.0  -0.0346163850520407 -0.0125993337768403 0.0  -0.0363927236766494 -0.0132458681621752 0.0
[...]
POINT_DATA 720
SCALARS PT/PT_inf float
LOOKUP_TABLE default
0.765678789073915 0.765678789073915 0.765678789073915 0.765678789073915 0.765678789073915 0.765678789073915 0.765678789073915 0.765678789073915 0.765678789073915 0.765678789073915 0.765678789073915 0.765678789073915 0.765678789073915 0.765678789073915 0.765678789073915 0.765678789073915 0.765678789073915 0.765678789073915 0.765678789073915 0.765678789073915 0.761381546310571 0.759441103691355 0.759441103691355 0.758114784836513 0.758114784836513 0.757064686641327 0.757064686641327 0.757064686641327 0.755807823748079 0.755807823748079 0.755807823748079 0.754235639349265 0.754235639349265 0.754235639349265 0.752223774505668 0.752223774505668 0.752223774505668 0.752223774505668 0.750089016004123 0.750089016004123 0.759441103691355 0.757064686641327 0.755807823748079 0.754235639349265 0.752223774505668 0.750089016004123 0.748019669020177 0.746260934114237 0.746260934114237 0.744805771754338 0.743604459917378 0.743604459917378 0.74248727354806 0.741198242322997 0.741198242322997 0.739716322693069 0.739716322693069 0.73798234500902 0.73798234500902 0.73593651577972 0.758114784836513 0.754235639349265 0.750089016004123 0.746260934114237 0.744805771754338 0.743604459917378 0.741198242322997 0.739716322693069 0.73798234500902 0.73593651577972 0.733788292815854 0.731835217320085 0.730309997435384 0.729123077617111 0.729123077617111 0.728202758149172 0.727380165725972 0.726568048060019 0.72555474206094 0.724356831124376 0.757064686641327 0.750089016004123 0.744805771754338 0.74248727354806 0.739716322693069 0.73593651577972 0.733788292815854 0.730309997435384 0.729123077617111 0.728202758149172 0.726568048060019 0.72555474206094 0.723000109813697 0.721407168138388 0.717232239093991 0.714929384031869 0.712785430606215 0.711064216266099 0.70980821989261 0.70980821989261 0.755807823748079 0.746260934114237 0.74248727354806 0.73798234500902 0.733788292815854 0.730309997435384 0.728202758149172 0.726568048060019 0.724356831124376 0.721407168138388 0.717232239093991 0.712785430606215 0.711064216266099 0.70980821989261 0.70905286385156 0.70799378499478 0.706479191607151 0.703921456956182 0.700013432569053 0.697637208361813 0.754235639349265 0.744805771754338 0.739716322693069 0.733788292815854 0.729123077617111 0.727380165725972 0.724356831124376 0.721407168138388 0.714929384031869 0.712785430606215 0.70980821989261 0.708497532871614 0.707386541839352 0.705308797045368 0.700013432569053 0.697637208361813 0.693497803920994 0.692172978826802 0.690639408940865 0.687152738266587 0.752223774505668 0.743604459917378 0.73593651577972 0.730309997435384 0.727380165725972 0.724356831124376 0.719445948921681 0.714929384031869 0.711064216266099 0.70905286385156 0.70799378499478 0.705308797045368 0.700013432569053 0.695325819859837 0.692172978826802 0.691475260123535 0.687152738266587 0.685241271141815 0.683129940777874 0.67981731151154 0.752223774505668 0.74248727354806 0.73593651577972 0.729123077617111 0.726568048060019 0.723000109813697 0.717232239093991 0.711064216266099 0.70905286385156 0.70799378499478 0.705308797045368 0.700013432569053 0.695325819859837 0.692172978826802 0.689205328193707 0.685241271141815 0.683843504670121 0.681413070465544 0.675279435671707 0.672941541780184 0.752223774505668 0.74248727354806 0.733788292815854 0.729123077617111 0.726568048060019 0.721407168138388 0.714929384031869 0.711064216266099 0.70905286385156 0.707386541839352 0.703921456956182 0.697637208361813 0.693497803920994 0.691475260123535 0.687152738266587 0.683843504670121 0.682453800273949 0.67775256770721 0.672941541780184 0.671263916210843 0.752223774505668 0.74248727354806 0.73593651577972 0.729123077617111 0.726568048060019 0.723000109813697 0.717232239093991 0.711064216266099 0.70905286385156 0.70799378499478 0.705308797045368 0.700013432569053 0.695325819859837 0.692172978826802 0.689205328193707 0.685241271141815 0.683843504670121 0.681413070465544 0.675279435671707 0.672941541780184 0.752223774505668 0.743604459917378 0.73593651577972 0.730309997435384 0.727380165725972 0.724356831124376 0.719445948921681 0.714929384031869 0.711064216266099 0.70905286385156 0.70799378499478 0.705308797045368 0.700013432569053 0.695325819859837 0.692172978826802 0.691475260123535 0.687152738266587 0.685241271141815 0.683129940777874 0.67981731151154 0.754235639349265 0.744805771754338 0.739716322693069 0.733788292815854 0.729123077617111 0.727380165725972 0.724356831124376 0.721407168138388 0.714929384031869 0.712785430606215 0.70980821989261 0.708497532871614 0.707386541839352 0.705308797045368 0.700013432569053 0.697637208361813 0.693497803920994 0.692172978826802 0.690639408940865 0.687152738266587 0.755807823748079 0.746260934114237 0.74248727354806 0.73798234500902 0.733788292815854 0.730309997435384 0.728202758149172 0.726568048060019 0.724356831124376 0.721407168138388 0.717232239093991 0.712785430606215 0.711064216266099 0.70980821989261 0.70905286385156 0.70799378499478 0.706479191607151 0.703921456956182 0.700013432569053 0.697637208361813 0.757064686641327 0.750089016004123 0.744805771754338 0.74248727354806 0.739716322693069 0.73593651577972 0.733788292815854 0.730309997435384 0.729123077617111 0.728202758149172 0.726568048060019 0.72555474206094 0.723000109813697 0.721407168138388 0.717232239093991 0.714929384031869 0.712785430606215 0.711064216266099 0.70980821989261 0.70980821989261 0.758114784836513 0.754235639349265 0.750089016004123 0.746260934114237 0.744805771754338 0.743604459917378 0.741198242322997 0.739716322693069 0.73798234500902 0.73593651577972 0.733788292815854 0.731835217320085 0.730309997435384 0.729123077617111 0.729123077617111 0.728202758149172 0.727380165725972 0.726568048060019 0.72555474206094 0.724356831124376 0.759441103691355 0.757064686641327 0.755807823748079 0.754235639349265 0.752223774505668 0.750089016004123 0.748019669020177 0.746260934114237 0.746260934114237 0.744805771754338 0.743604459917378 0.743604459917378 0.74248727354806 0.741198242322997 0.741198242322997 0.739716322693069 0.739716322693069 0.73798234500902 0.73798234500902 0.73593651577972 0.761381546310571 0.759441103691355 0.759441103691355 0.758114784836513 0.758114784836513 0.757064686641327 0.757064686641327 0.757064686641327 0.755807823748079 0.755807823748079 0.755807823748079 0.754235639349265 0.754235639349265 0.754235639349265 0.752223774505668 0.752223774505668 0.752223774505668 0.752223774505668 0.750089016004123 0.750089016004123 0.765678789073915 0.765678789073915 0.765678789073915 0.765678789073915 0.765678789073915 0.765678789073915 0.765678789073915 0.765678789073915 0.765678789073915 0.765678789073915 0.765678789073915 0.765678789073915 0.765678789073915 0.765678789073915 0.765678789073915 0.765678789073915 0.765678789073915 0.765678789073915 0.765678789073915 0.765678789073915 0.767540287771931 0.769009110034984 0.769009110034984 0.769823969249821 0.769823969249821 0.7705473075213 0.7705473075213 0.7705473075213 0.771592538566222 0.771592538566222 0.771592538566222 0.771592538566222 0.543229160024644 0.543229160024644 0.543229160024644 0.544754330197658 0.544754330197658 0.544754330197658 0.544754330197658 0.546317942149095 0.769009110034984 0.7705473075213 0.771592538566222 0.543229160024644 0.544754330197658 0.546317942149095 0.545906252033632 0.545906252033632 0.544834838770333 0.544280217801234 0.544280217801234 0.545432297460672 0.545432297460672 0.547437184752781 0.547437184752781 0.548823948040534 0.548823948040534 0.548823948040534 0.548211667676091 0.548211667676091 0.769823969249821 0.543229160024644 0.546317942149095 0.545906252033632 0.544280217801234 0.545432297460672 0.547437184752781 0.548823948040534 0.548211667676091 0.548211667676091 0.546564092688487 0.545011172213464 0.545011172213464 0.5445668429646 0.5445668429646 0.545683045532863 0.545683045532863 0.54816763157874 0.54816763157874 0.54816763157874 0.7705473075213 0.546317942149095 0.544834838770333 0.545432297460672 0.548823948040534 0.548211667676091 0.546564092688487 0.545011172213464 0.5445668429646 0.545683045532863 0.54816763157874 0.54816763157874 0.550733295521037 0.550733295521037 0.552155622858834 0.551240950913816 0.549115894791409 0.549115894791409 0.547338386883097 0.547338386883097 0.771592538566222 0.545906252033632 0.545432297460672 0.548823948040534 0.546564092688487 0.5445668429646 0.545683045532863 0.54816763157874 0.550733295521037 0.550733295521037 0.551240950913816 0.551240950913816 0.549115894791409 0.547338386883097 0.547338386883097 0.54665818307088 0.54665818307088 0.547569912607642 0.547569912607642 0.547569912607642 0.543229160024644 0.544280217801234 0.548823948040534 0.546564092688487 0.5445668429646 0.545683045532863 0.54816763157874 0.552155622858834 0.551240950913816 0.549115894791409 0.547338386883097 0.547338386883097 0.54665818307088 0.54665818307088 0.547569912607642 0.547569912607642 0.54978954985647 0.54978954985647 0.54978954985647 0.551894363321941 0.543229160024644 0.545432297460672 0.548211667676091 0.545011172213464 0.545683045532863 0.54816763157874 0.552155622858834 0.551240950913816 0.549115894791409 0.547338386883097 0.54665818307088 0.54665818307088 0.547569912607642 0.547569912607642 0.54978954985647 0.54978954985647 0.551894363321941 0.551894363321941 0.552749967244501 0.550798615548482 0.544754330197658 0.545432297460672 0.546564092688487 0.5445668429646 0.54816763157874 0.550733295521037 0.551240950913816 0.549115894791409 0.547338386883097 0.54665818307088 0.54665818307088 0.547569912607642 0.547569912607642 0.54978954985647 0.54978954985647 0.551894363321941 0.552749967244501 0.550798615548482 0.550798615548482 0.548610311160472 0.544754330197658 0.547437184752781 0.546564092688487 0.5445668429646 0.54816763157874 0.550733295521037 0.551240950913816 0.549115894791409 0.547338386883097 0.54665818307088 0.547569912607642 0.547569912607642 0.54978954985647 0.54978954985647 0.551894363321941 0.551894363321941 0.552749967244501 0.550798615548482 0.548610311160472 0.548610311160472 0.544754330197658 0.545432297460672 0.546564092688487 0.5445668429646 0.54816763157874 0.550733295521037 0.551240950913816 0.549115894791409 0.547338386883097 0.54665818307088 0.54665818307088 0.547569912607642 0.547569912607642 0.54978954985647 0.54978954985647 0.551894363321941 0.552749967244501 0.550798615548482 0.550798615548482 0.548610311160472 0.543229160024644 0.545432297460672 0.548211667676091 0.545011172213464 0.545683045532863 0.54816763157874 0.552155622858834 0.551240950913816 0.549115894791409 0.547338386883097 0.54665818307088 0.54665818307088 0.547569912607642 0.547569912607642 0.54978954985647 0.54978954985647 0.551894363321941 0.551894363321941 0.552749967244501 0.550798615548482 0.543229160024644 0.544280217801234 0.548823948040534 0.546564092688487 0.5445668429646 0.545683045532863 0.54816763157874 0.552155622858834 0.551240950913816 0.549115894791409 0.547338386883097 0.547338386883097 0.54665818307088 0.54665818307088 0.547569912607642 0.547569912607642 0.54978954985647 0.54978954985647 0.54978954985647 0.551894363321941 0.771592538566222 0.545906252033632 0.545432297460672 0.548823948040534 0.546564092688487 0.5445668429646 0.545683045532863 0.54816763157874 0.550733295521037 0.550733295521037 0.551240950913816 0.551240950913816 0.549115894791409 0.547338386883097 0.547338386883097 0.54665818307088 0.54665818307088 0.547569912607642 0.547569912607642 0.547569912607642 0.7705473075213 0.546317942149095 0.544834838770333 0.545432297460672 0.548823948040534 0.548211667676091 0.546564092688487 0.545011172213464 0.5445668429646 0.545683045532863 0.54816763157874 0.54816763157874 0.550733295521037 0.550733295521037 0.552155622858834 0.551240950913816 0.549115894791409 0.549115894791409 0.547338386883097 0.547338386883097 0.769823969249821 0.543229160024644 0.546317942149095 0.545906252033632 0.544280217801234 0.545432297460672 0.547437184752781 0.548823948040534 0.548211667676091 0.548211667676091 0.546564092688487 0.545011172213464 0.545011172213464 0.5445668429646 0.5445668429646 0.545683045532863 0.545683045532863 0.54816763157874 0.54816763157874 0.54816763157874 0.769009110034984 0.7705473075213 0.771592538566222 0.543229160024644 0.544754330197658 0.546317942149095 0.545906252033632 0.545906252033632 0.544834838770333 0.544280217801234 0.544280217801234 0.545432297460672 0.545432297460672 0.547437184752781 0.547437184752781 0.548823948040534 0.548823948040534 0.548823948040534 0.548211667676091 0.548211667676091 0.767540287771931 0.769009110034984 0.769009110034984 0.769823969249821 0.769823969249821 0.7705473075213 0.7705473075213 0.7705473075213 0.771592538566222 0.771592538566222 0.771592538566222 0.771592538566222 0.543229160024644 0.543229160024644 0.543229160024644 0.544754330197658 0.544754330197658 0.544754330197658 0.544754330197658 0.546317942149095 SCALARS TT/TT_inf float
LOOKUP_TABLE default